AuH: recontracted SARC + def2-qzvpp                                     
SP        RPBE1PBE                                                    Gen                 
Number of atoms                            I                2
Info1-9                                    I   N=           9
         144         143           0           0           0         110
           1          18        -302
Charge                                     I                0
Multiplicity                               I                1
Number of electrons                        I               80
Number of alpha electrons                  I               40
Number of beta electrons                   I               40
Number of basis functions                  I              150
Number of independent functions            I              150
Number of point charges in /Mol/           I                0
Number of translation vectors              I                0
Atomic numbers                             I   N=           2
           1          79
Nuclear charges                            R   N=           2
  1.00000000E+00  7.90000000E+01
Current cartesian coordinates              R   N=           6
  0.00000000E+00  0.00000000E+00 -2.85551845E+00  0.00000000E+00  0.00000000E+00
  3.61458032E-02
Force Field                                I                0
Int Atom Types                             I   N=           2
           0           0
MM charges                                 R   N=           2
  0.00000000E+00  0.00000000E+00
Integer atomic weights                     I   N=           2
           1         197
Real atomic weights                        R   N=           2
  1.00782504E+00  1.96966600E+02
Atom fragment info                         I   N=           2
           0           0
Atom residue num                           I   N=           2
           0           0
Nuclear spins                              I   N=           2
           1           3
Nuclear ZEff                               R   N=           2
 -1.00000000E+00  0.00000000E+00
Nuclear QMom                               R   N=           2
  0.00000000E+00  5.47000000E+01
Nuclear GFac                               R   N=           2
  2.79284600E+00  1.48159000E-01
MicOpt                                     I   N=           2
          -1          -1
Number of contracted shells                I               50
Number of primitive shells                 I               68
Pure/Cartesian d shells                    I                0
Pure/Cartesian f shells                    I                0
Highest angular momentum                   I                4
Largest degree of contraction              I                6
Shell types                                I   N=          50
           0           0           0           0           1           1
           1          -2          -2          -3           0           0
           0           0           0           0           0           0
           0           0           0           0           0           0
           0           0           0           1           1           1
           1           1           1           1           1           1
           1           1          -2          -2          -2          -2
          -2          -2          -2          -2          -3          -3
          -3          -4
Number of primitives per shell             I   N=          50
           4           1           1           1           1           1
           1           1           1           1           6           1
           1           1           1           1           1           1
           1           1           1           1           1           1
           1           1           1           5           1           1
           1           1           1           1           1           1
           1           1           4           1           1           1
           1           1           1           1           4           1
           1           1
Shell to atom map                          I   N=          50
           1           1           1           1           1           1
           1           1           1           1           2           2
           2           2           2           2           2           2
           2           2           2           2           2           2
           2           2           2           2           2           2
           2           2           2           2           2           2
           2           2           2           2           2           2
           2           2           2           2           2           2
           2           2
Primitive exponents                        R   N=          68
  1.90691690E+02  2.86055320E+01  6.50959430E+00  1.84124550E+00  5.98537250E-01
  2.13976240E-01  8.03162860E-02  2.29200000E+00  8.38000000E-01  2.92000000E-01
  2.06200000E+00  6.62000000E-01  1.39700000E+00  1.73343595E+06  7.70415977E+05
  3.42407101E+05  1.52180934E+05  6.76359705E+04  3.00604313E+04  1.33601917E+04
  5.93786298E+03  2.63905021E+03  1.17291121E+03  5.21293869E+02  2.31686164E+02
  1.02971629E+02  4.57651680E+01  2.03400750E+01  9.04003300E+00  4.01779300E+00
  1.78568600E+00  7.93638000E-01  3.52728000E-01  1.56768000E-01  6.96750000E-02
  2.42948435E+04  9.71793740E+03  3.88717496E+03  1.55486998E+03  6.21947994E+02
  2.48779197E+02  9.95116790E+01  3.98046720E+01  1.59218690E+01  6.36874700E+00
  2.54749900E+00  1.01900000E+00  4.07600000E-01  1.63040000E-01  6.52160000E-02
  1.86912758E+03  6.79682755E+02  2.47157366E+02  8.98754060E+01  3.26819660E+01
  1.18843510E+01  4.32158200E+00  1.57148400E+00  5.71449000E-01  2.07800000E-01
  7.55630000E-02  9.08433260E+01  3.02811090E+01  1.00937030E+01  3.36456800E+00
  1.12152300E+00  3.73841000E-01  1.14690000E+00
Contraction coefficients                   R   N=          68
  5.32528021E-03  4.12592150E-02  2.11011743E-01  8.12112102E-01  1.00000000E+00
  1.00000000E+00  1.00000000E+00  1.00000000E+00  1.00000000E+00  1.00000000E+00
  1.00000000E+00  1.00000000E+00  1.00000000E+00  1.12675980E-01 -6.05231725E-02
  2.11247845E-01  5.68569562E-02  3.84491787E-01  4.53724562E-01  1.00000000E+00
  1.00000000E+00  1.00000000E+00  1.00000000E+00  1.00000000E+00  1.00000000E+00
  1.00000000E+00  1.00000000E+00  1.00000000E+00  1.00000000E+00  1.00000000E+00
  1.00000000E+00  1.00000000E+00  1.00000000E+00  1.00000000E+00  1.00000000E+00
  1.65709658E-02  1.84724877E-02  9.15558291E-02  2.55721577E-01  7.29484714E-01
  1.00000000E+00  1.00000000E+00  1.00000000E+00  1.00000000E+00  1.00000000E+00
  1.00000000E+00  1.00000000E+00  1.00000000E+00  1.00000000E+00  1.00000000E+00
  8.45149474E-03  4.50394340E-02  2.46408267E-01  8.04578017E-01  1.00000000E+00
  1.00000000E+00  1.00000000E+00  1.00000000E+00  1.00000000E+00  1.00000000E+00
  1.00000000E+00  6.08413256E-02  2.89929071E-01  5.68801471E-01  3.78085359E-01
  1.00000000E+00  1.00000000E+00  1.00000000E+00
Coordinates of each shell                  R   N=         150
  0.00000000E+00  0.00000000E+00 -2.85551845E+00  0.00000000E+00  0.00000000E+00
 -2.85551845E+00  0.00000000E+00  0.00000000E+00 -2.85551845E+00  0.00000000E+00
  0.00000000E+00 -2.85551845E+00  0.00000000E+00  0.00000000E+00 -2.85551845E+00
  0.00000000E+00  0.00000000E+00 -2.85551845E+00  0.00000000E+00  0.00000000E+00
 -2.85551845E+00  0.00000000E+00  0.00000000E+00 -2.85551845E+00  0.00000000E+00
  0.00000000E+00 -2.85551845E+00  0.00000000E+00  0.00000000E+00 -2.85551845E+00
  0.00000000E+00  0.00000000E+00  3.61458032E-02  0.00000000E+00  0.00000000E+00
  3.61458032E-02  0.00000000E+00  0.00000000E+00  3.61458032E-02  0.00000000E+00
  0.00000000E+00  3.61458032E-02  0.00000000E+00  0.00000000E+00  3.61458032E-02
  0.00000000E+00  0.00000000E+00  3.61458032E-02  0.00000000E+00  0.00000000E+00
  3.61458032E-02  0.00000000E+00  0.00000000E+00  3.61458032E-02  0.00000000E+00
  0.00000000E+00  3.61458032E-02  0.00000000E+00  0.00000000E+00  3.61458032E-02
  0.00000000E+00  0.00000000E+00  3.61458032E-02  0.00000000E+00  0.00000000E+00
  3.61458032E-02  0.00000000E+00  0.00000000E+00  3.61458032E-02  0.00000000E+00
  0.00000000E+00  3.61458032E-02  0.00000000E+00  0.00000000E+00  3.61458032E-02
  0.00000000E+00  0.00000000E+00  3.61458032E-02  0.00000000E+00  0.00000000E+00
  3.61458032E-02  0.00000000E+00  0.00000000E+00  3.61458032E-02  0.00000000E+00
  0.00000000E+00  3.61458032E-02  0.00000000E+00  0.00000000E+00  3.61458032E-02
  0.00000000E+00  0.00000000E+00  3.61458032E-02  0.00000000E+00  0.00000000E+00
  3.61458032E-02  0.00000000E+00  0.00000000E+00  3.61458032E-02  0.00000000E+00
  0.00000000E+00  3.61458032E-02  0.00000000E+00  0.00000000E+00  3.61458032E-02
  0.00000000E+00  0.00000000E+00  3.61458032E-02  0.00000000E+00  0.00000000E+00
  3.61458032E-02  0.00000000E+00  0.00000000E+00  3.61458032E-02  0.00000000E+00
  0.00000000E+00  3.61458032E-02  0.00000000E+00  0.00000000E+00  3.61458032E-02
  0.00000000E+00  0.00000000E+00  3.61458032E-02  0.00000000E+00  0.00000000E+00
  3.61458032E-02  0.00000000E+00  0.00000000E+00  3.61458032E-02  0.00000000E+00
  0.00000000E+00  3.61458032E-02  0.00000000E+00  0.00000000E+00  3.61458032E-02
  0.00000000E+00  0.00000000E+00  3.61458032E-02  0.00000000E+00  0.00000000E+00
  3.61458032E-02  0.00000000E+00  0.00000000E+00  3.61458032E-02  0.00000000E+00
  0.00000000E+00  3.61458032E-02  0.00000000E+00  0.00000000E+00  3.61458032E-02
Constraint Structure                       R   N=           6
  0.00000000E+00  0.00000000E+00 -2.85551845E+00  0.00000000E+00  0.00000000E+00
  3.61458032E-02
Num ILSW                                   I              100
ILSW                                       I   N=         100
           0           0           0           0           2           0
           0           0           0           0        1009          -1
           5           0           0           0           0           0
           0           0           0           0           0           0
           1           0           0           0           0           8
           0           0      100000           0          -1           0
           0           0           0           0           0           0
           0           0           0           1           0           0
           0           0           1           0           0           0
           0           0           4          40           0           0
           0           0          13           0           0           0
           0           0           0           0           0           0
           0           0           0           0           0           0
           0           0           0           0           0           0
           0           0           0           0           0           0
           0           0           0           0           0           0
           0           0           0           0
Num RLSW                                   I               40
RLSW                                       R   N=          40
  7.50000000E-01  7.50000000E-01  1.00000000E+00  1.00000000E+00  2.50000000E-01
  0.00000000E+00  0.00000000E+00  1.00000000E+00  0.00000000E+00  0.00000000E+00
  0.00000000E+00  0.00000000E+00  1.00000000E+00  0.00000000E+00  0.00000000E+00
  0.00000000E+00  0.00000000E+00  1.00000000E+00  0.00000000E+00  0.00000000E+00
  0.00000000E+00  0.00000000E+00  1.00000000E+00  0.00000000E+00  0.00000000E+00
  0.00000000E+00  0.00000000E+00  1.00000000E+00  0.00000000E+00  0.00000000E+00
  0.00000000E+00  0.00000000E+00  0.00000000E+00  0.00000000E+00  0.00000000E+00
  0.00000000E+00  0.00000000E+00  0.00000000E+00  1.00000000E+00  1.00000000E+00
MxBond                                     I                1
NBond                                      I   N=           2
           1           1
IBond                                      I   N=           2
           2           1
RBond                                      R   N=           2
  2.00000000E+00  2.00000000E+00
Virial Ratio                               R      1.693747279595508E+00
SCF Energy                                 R     -1.900761389057910E+04
Total Energy                               R     -1.900761389057910E+04
RMS Density                                R      9.676350435128566E-10
External E-field                           R   N=          35
  0.00000000E+00  0.00000000E+00  0.00000000E+00  0.00000000E+00  0.00000000E+00
  0.00000000E+00  0.00000000E+00  0.00000000E+00  0.00000000E+00  0.00000000E+00
  0.00000000E+00  0.00000000E+00  0.00000000E+00  0.00000000E+00  0.00000000E+00
  0.00000000E+00  0.00000000E+00  0.00000000E+00  0.00000000E+00  0.00000000E+00
  0.00000000E+00  0.00000000E+00  0.00000000E+00  0.00000000E+00  0.00000000E+00
  0.00000000E+00  0.00000000E+00  0.00000000E+00  0.00000000E+00  0.00000000E+00
  0.00000000E+00  0.00000000E+00  0.00000000E+00  0.00000000E+00  0.00000000E+00
IOpCl                                      I                0
IROHF                                      I                0
Alpha Orbital Energies                     R   N=         150
 -2.96201670E+03 -5.24177505E+02 -4.55322672E+02 -4.55322239E+02 -4.55322239E+02
 -1.24525670E+02 -1.04321504E+02 -1.04321504E+02 -1.04321086E+02 -8.17826811E+01
 -8.17826811E+01 -8.17821441E+01 -8.17821441E+01 -8.17820935E+01 -2.74303946E+01
 -2.07169927E+01 -2.07150720E+01 -2.07150720E+01 -1.23870517E+01 -1.23855653E+01
 -1.23855653E+01 -1.23846537E+01 -1.23846534E+01 -4.19540408E+00 -3.23203214E+00
 -3.23103286E+00 -3.23103286E+00 -3.22901376E+00 -3.22901285E+00 -3.22827268E+00
 -3.22827268E+00 -2.39709930E+00 -2.37668154E+00 -2.37668154E+00 -4.36427710E-01
 -3.38656691E-01 -3.38656691E-01 -3.18902558E-01 -3.18902466E-01 -2.73241823E-01
 -8.48767408E-02  4.66407943E-03  4.66407943E-03  1.13644636E-01  1.50984530E-01
  1.66126001E-01  1.66126001E-01  1.77986487E-01  1.77986494E-01  2.15946581E-01
  2.85227158E-01  3.16136726E-01  3.16136726E-01  4.36174541E-01  5.84255303E-01
  5.84255303E-01  7.80973792E-01  7.80973792E-01  7.86486460E-01  7.86486583E-01
  8.09692296E-01  8.33865552E-01  9.67169158E-01  9.67169294E-01  9.91470886E-01
  9.91470886E-01  1.10787050E+00  1.15984590E+00  1.15984590E+00  1.22930797E+00
  1.43983596E+00  1.48306031E+00  1.48306031E+00  1.61934646E+00  1.98964011E+00
  1.98964011E+00  2.18618709E+00  2.18618709E+00  2.39106555E+00  2.47997347E+00
  2.47997347E+00  2.93429819E+00  2.94526204E+00  2.94526204E+00  2.96043425E+00
  2.96043438E+00  2.98362525E+00  2.98362525E+00  3.10336587E+00  3.10336682E+00
  3.14005241E+00  3.18379260E+00  3.18379260E+00  3.72815776E+00  3.92645882E+00
  3.92645883E+00  3.93242907E+00  3.93242907E+00  3.94662879E+00  3.94662926E+00
  4.22505486E+00  4.22505486E+00  4.32263948E+00  4.60704437E+00  5.56401649E+00
  5.78030756E+00  5.78030756E+00  5.94129940E+00  5.94129942E+00  6.50385066E+00
  6.50385066E+00  6.61530978E+00  6.62009116E+00  6.62009116E+00  7.17326464E+00
  7.62470154E+00  7.62470154E+00  7.88727927E+00  7.88727940E+00  8.32058329E+00
  8.32058329E+00  8.60241928E+00  9.09140395E+00  1.48388075E+01  1.48388114E+01
  1.49120582E+01  1.49120582E+01  1.52435026E+01  1.89832483E+01  3.63596812E+01
  3.63596812E+01  3.65809785E+01  8.68846338E+01  8.88316745E+01  8.88316757E+01
  8.88686258E+01  8.88686258E+01  8.90422371E+01  2.11952015E+02  2.11952015E+02
  2.12099966E+02  3.74360338E+02  1.02868671E+03  1.02868671E+03  1.02878570E+03
  1.30827316E+03  3.68887164E+03  8.76804284E+03  1.81434727E+04  4.05974118E+04
Alpha MO coefficients                      R   N=       22500
 -7.58041562E-07  4.82576234E-06 -1.75616021E-05  2.79807873E-05  0.00000000E+00
  0.00000000E+00  4.09190584E-07  0.00000000E+00  0.00000000E+00  2.29040447E-06
  0.00000000E+00  0.00000000E+00 -4.30532722E-06  6.19471466E-07  0.00000000E+00
  0.00000000E+00  2.20589560E-16  0.00000000E+00 -4.00507615E-07  0.00000000E+00
  0.00000000E+00 -6.90711620E-16  0.00000000E+00 -1.88687291E-06  0.00000000E+00
  0.00000000E+00  7.47880034E-16  0.00000000E+00  0.00000000E+00  0.00000000E+00
  1.12714290E-01  1.17368010E-01  1.87407503E-01  3.03782803E-01  3.16700728E-01
  1.53069603E-01  6.07572996E-03  3.71904205E-03 -2.68009644E-03  1.81552433E-03
 -1.21136108E-03  7.99558033E-04 -5.20271842E-04  3.30261087E-04 -1.98773338E-04
  1.10292236E-04 -5.03030018E-05  0.00000000E+00  0.00000000E+00  5.47237419E-07
  0.00000000E+00  0.00000000E+00 -3.06652844E-07  0.00000000E+00  0.00000000E+00
  4.65438439E-07  0.00000000E+00  0.00000000E+00 -7.06490389E-07  0.00000000E+00
  0.00000000E+00  1.15529617E-06  0.00000000E+00  0.00000000E+00 -1.93697789E-06
  0.00000000E+00  0.00000000E+00  3.19648886E-06  0.00000000E+00  0.00000000E+00
 -4.72662876E-06  0.00000000E+00  0.00000000E+00  5.26316496E-06  0.00000000E+00
  0.00000000E+00 -1.18006814E-05  0.00000000E+00  0.00000000E+00  1.60813992E-05
  9.44113380E-08  0.00000000E+00  0.00000000E+00 -6.53334152E-16  0.00000000E+00
 -2.43893179E-07  0.00000000E+00  0.00000000E+00  2.18731398E-16  0.00000000E+00
  5.32394247E-07  0.00000000E+00  0.00000000E+00  1.06603907E-15  0.00000000E+00
 -1.04501462E-06  0.00000000E+00  0.00000000E+00 -1.67159308E-15  0.00000000E+00
  1.84197795E-06  0.00000000E+00  0.00000000E+00  1.33180034E-15  0.00000000E+00
 -2.38192289E-06  0.00000000E+00  0.00000000E+00 -7.94458338E-16  0.00000000E+00
  5.71305296E-06  0.00000000E+00  0.00000000E+00  4.88555845E-16  0.00000000E+00
 -6.24208370E-06  0.00000000E+00  0.00000000E+00  2.31419430E-16  0.00000000E+00
  7.69399519E-09  0.00000000E+00  0.00000000E+00  7.11330179E-17  0.00000000E+00
  0.00000000E+00  0.00000000E+00 -1.38465133E-07  0.00000000E+00  0.00000000E+00
 -4.41814892E-16  0.00000000E+00  0.00000000E+00  0.00000000E+00  1.51097949E-08
  0.00000000E+00  0.00000000E+00 -9.96866785E-17  0.00000000E+00  0.00000000E+00
  0.00000000E+00 -1.71988239E-07  0.00000000E+00  0.00000000E+00  3.51409426E-16
  0.00000000E+00  0.00000000E+00  0.00000000E+00 -8.66074636E-15  0.00000000E+00
 -3.59180173E-06  2.18271434E-05 -7.71052864E-05  1.25610682E-04  0.00000000E+00
  0.00000000E+00  1.58518733E-06  0.00000000E+00  0.00000000E+00  1.07905480E-05
  0.00000000E+00  0.00000000E+00 -1.83788085E-05  2.77285971E-06  0.00000000E+00
  0.00000000E+00  6.53254902E-16  0.00000000E+00 -1.22168990E-06  0.00000000E+00
  0.00000000E+00 -1.21362092E-15  0.00000000E+00 -8.22022176E-06  0.00000000E+00
  0.00000000E+00 -3.98313157E-16  0.00000000E+00  0.00000000E+00  0.00000000E+00
 -4.55392694E-02 -5.26602832E-02 -8.42395539E-02 -1.59879606E-01 -1.92380383E-01
 -2.26862265E-02  5.25772216E-01  5.46053720E-01  5.88334692E-02  5.21438655E-03
 -4.66712766E-03  3.33538600E-03 -2.25590470E-03  1.46069378E-03 -8.86632848E-04
  4.92746984E-04 -2.25753955E-04  0.00000000E+00  0.00000000E+00  1.07148628E-05
  0.00000000E+00  0.00000000E+00  1.47364422E-05  0.00000000E+00  0.00000000E+00
  1.12988358E-05  0.00000000E+00  0.00000000E+00 -1.71721439E-06  0.00000000E+00
  0.00000000E+00  4.67375721E-06  0.00000000E+00  0.00000000E+00 -8.30999512E-06
  0.00000000E+00  0.00000000E+00  1.40994554E-05  0.00000000E+00  0.00000000E+00
 -2.14180581E-05  0.00000000E+00  0.00000000E+00  2.46185871E-05  0.00000000E+00
  0.00000000E+00 -5.22491873E-05  0.00000000E+00  0.00000000E+00  7.22631152E-05
  3.41397907E-07  0.00000000E+00  0.00000000E+00  1.26404703E-16  0.00000000E+00
 -1.16257526E-06  0.00000000E+00  0.00000000E+00 -8.71723800E-17  0.00000000E+00
  2.37207706E-06  0.00000000E+00  0.00000000E+00 -4.09532006E-16  0.00000000E+00
 -4.69334171E-06  0.00000000E+00  0.00000000E+00  2.11773922E-16  0.00000000E+00
  8.43879080E-06  0.00000000E+00  0.00000000E+00 -1.46258215E-16  0.00000000E+00
 -1.13132677E-05  0.00000000E+00  0.00000000E+00 -6.37881014E-16  0.00000000E+00
  2.52429255E-05  0.00000000E+00  0.00000000E+00 -1.97395952E-16  0.00000000E+00
 -2.80855033E-05  0.00000000E+00  0.00000000E+00 -1.16009086E-16  0.00000000E+00
 -8.33964015E-08  0.00000000E+00  0.00000000E+00  1.81406047E-16  0.00000000E+00
  0.00000000E+00  0.00000000E+00 -4.42774687E-07  0.00000000E+00  0.00000000E+00
  7.24227325E-17  0.00000000E+00  0.00000000E+00  0.00000000E+00  3.39083965E-07
  0.00000000E+00  0.00000000E+00 -3.15599526E-16  0.00000000E+00  0.00000000E+00
  0.00000000E+00 -9.14411510E-07  0.00000000E+00  0.00000000E+00  5.94037335E-16
  0.00000000E+00  0.00000000E+00  0.00000000E+00 -2.50212730E-13  0.00000000E+00
 -3.51557876E-05  1.13611995E-04  5.34454352E-04  4.26759055E-05  0.00000000E+00
  0.00000000E+00 -9.85095890E-06  0.00000000E+00  0.00000000E+00  9.63240487E-05
  0.00000000E+00  0.00000000E+00  3.29868537E-04  3.99448132E-06  0.00000000E+00
  0.00000000E+00  5.07249642E-16  0.00000000E+00  8.25206758E-05  0.00000000E+00
  0.00000000E+00  7.22036701E-17  0.00000000E+00 -2.87076686E-05  0.00000000E+00
  0.00000000E+00  4.74366644E-16  0.00000000E+00  0.00000000E+00  0.00000000E+00
  1.42887877E-06  1.70488613E-06  2.48107031E-06  5.55681356E-06  4.89042676E-06
  3.47451071E-06 -2.40091168E-05 -3.62428933E-06 -2.67996872E-05  4.58055834E-05
 -7.75092271E-05  1.27228980E-04 -2.05507649E-04  3.01892130E-04 -1.30137258E-04
 -4.53059344E-04 -3.30155698E-05  0.00000000E+00  0.00000000E+00  3.78779946E-01
  0.00000000E+00  0.00000000E+00  4.77341595E-01  0.00000000E+00  0.00000000E+00
  2.89564593E-01  0.00000000E+00  0.00000000E+00  8.81688805E-03  0.00000000E+00
  0.00000000E+00  6.18455131E-03  0.00000000E+00  0.00000000E+00 -4.10534199E-03
  0.00000000E+00  0.00000000E+00  2.54221852E-03  0.00000000E+00  0.00000000E+00
 -1.60854111E-03  0.00000000E+00  0.00000000E+00  1.03846226E-03  0.00000000E+00
  0.00000000E+00 -1.56485277E-05  0.00000000E+00  0.00000000E+00  1.20593947E-04
  5.67600798E-06  0.00000000E+00  0.00000000E+00  1.09961416E-16  0.00000000E+00
 -6.67215463E-06  0.00000000E+00  0.00000000E+00 -1.06001372E-16  0.00000000E+00
  1.48246482E-05  0.00000000E+00  0.00000000E+00 -1.22908148E-16  0.00000000E+00
 -3.08354846E-05  0.00000000E+00  0.00000000E+00 -5.42057812E-16  0.00000000E+00
  6.31909805E-05  0.00000000E+00  0.00000000E+00  3.09219979E-16  0.00000000E+00
 -1.12310533E-04  0.00000000E+00  0.00000000E+00 -1.65662937E-16  0.00000000E+00
 -2.38577200E-04  0.00000000E+00  0.00000000E+00  1.30959685E-15  0.00000000E+00
  7.25881030E-06  0.00000000E+00  0.00000000E+00 -6.16359083E-16  0.00000000E+00
  7.52053168E-07  0.00000000E+00  0.00000000E+00  9.10332818E-17  0.00000000E+00
  0.00000000E+00  0.00000000E+00 -1.02100823E-05  0.00000000E+00  0.00000000E+00
 -1.55324481E-16  0.00000000E+00  0.00000000E+00  0.00000000E+00  1.33605063E-04
  0.00000000E+00  0.00000000E+00  8.33003590E-17  0.00000000E+00  0.00000000E+00
  0.00000000E+00 -2.58630051E-05  0.00000000E+00  0.00000000E+00  7.49231631E-16
  0.00000000E+00  0.00000000E+00  0.00000000E+00  2.96568016E-15  0.00000000E+00
  0.00000000E+00  0.00000000E+00  0.00000000E+00  0.00000000E+00  5.38516705E-06
  0.00000000E+00  0.00000000E+00 -1.37632635E-05  0.00000000E+00  0.00000000E+00
 -2.77422632E-06  0.00000000E+00  0.00000000E+00  0.00000000E+00  3.67908902E-06
  0.00000000E+00  0.00000000E+00  0.00000000E+00  0.00000000E+00 -2.73470963E-05
  0.00000000E+00  0.00000000E+00  0.00000000E+00  0.00000000E+00 -8.41975034E-06
  0.00000000E+00  0.00000000E+00  0.00000000E+00  6.37008220E-15  0.00000000E+00
  0.00000000E+00  0.00000000E+00  0.00000000E+00  0.00000000E+00  0.00000000E+00
  0.00000000E+00  0.00000000E+00  0.00000000E+00  0.00000000E+00  0.00000000E+00
  0.00000000E+00  0.00000000E+00  0.00000000E+00  0.00000000E+00  0.00000000E+00
  0.00000000E+00  0.00000000E+00  3.78779279E-01  0.00000000E+00  0.00000000E+00
  4.77343049E-01  0.00000000E+00  0.00000000E+00  2.89559627E-01  0.00000000E+00
  0.00000000E+00  8.83015077E-03  0.00000000E+00  0.00000000E+00  6.15823827E-03
  0.00000000E+00  0.00000000E+00 -4.05571188E-03  0.00000000E+00  0.00000000E+00
  2.45081558E-03  0.00000000E+00  0.00000000E+00 -1.43764197E-03  0.00000000E+00
  0.00000000E+00  8.03364630E-04  0.00000000E+00  0.00000000E+00 -3.79580979E-04
  0.00000000E+00  0.00000000E+00  1.20152110E-04  0.00000000E+00  0.00000000E+00
  0.00000000E+00  4.53122304E-06  0.00000000E+00  0.00000000E+00  0.00000000E+00
  0.00000000E+00 -1.74782788E-06  0.00000000E+00  0.00000000E+00  0.00000000E+00
  0.00000000E+00  2.51924947E-06  0.00000000E+00  0.00000000E+00  0.00000000E+00
  0.00000000E+00 -4.17339580E-06  0.00000000E+00  0.00000000E+00  0.00000000E+00
  0.00000000E+00  7.90601986E-06  0.00000000E+00  0.00000000E+00  0.00000000E+00
  0.00000000E+00 -1.19208745E-05  0.00000000E+00  0.00000000E+00  0.00000000E+00
  0.00000000E+00 -8.02060466E-06  0.00000000E+00  0.00000000E+00  0.00000000E+00
  0.00000000E+00  3.66280705E-06  0.00000000E+00  0.00000000E+00  0.00000000E+00
  0.00000000E+00 -3.23821034E-07  0.00000000E+00  0.00000000E+00  0.00000000E+00
 -1.26185783E-12  0.00000000E+00  0.00000000E+00  6.04260935E-08  0.00000000E+00
  0.00000000E+00  0.00000000E+00  5.81114498E-13  0.00000000E+00  0.00000000E+00
  1.45927581E-05  0.00000000E+00  0.00000000E+00  0.00000000E+00 -2.38845332E-13
  0.00000000E+00  0.00000000E+00 -7.05380213E-06  0.00000000E+00  0.00000000E+00
  0.00000000E+00  3.68368060E-14  0.00000000E+00  0.00000000E+00  0.00000000E+00
  0.00000000E+00  0.00000000E+00  0.00000000E+00  0.00000000E+00  0.00000000E+00
  5.38516704E-06  0.00000000E+00  0.00000000E+00 -1.37632635E-05  0.00000000E+00
  0.00000000E+00 -2.77422633E-06  0.00000000E+00  0.00000000E+00  0.00000000E+00
  3.67908902E-06  0.00000000E+00  0.00000000E+00  0.00000000E+00  0.00000000E+00
 -2.73470963E-05  0.00000000E+00  0.00000000E+00  0.00000000E+00  0.00000000E+00
 -8.41975034E-06  0.00000000E+00  0.00000000E+00  0.00000000E+00 -5.64652717E-15
  0.00000000E+00  0.00000000E+00  0.00000000E+00  0.00000000E+00  0.00000000E+00
  0.00000000E+00  0.00000000E+00  0.00000000E+00  0.00000000E+00  0.00000000E+00
  0.00000000E+00  0.00000000E+00  0.00000000E+00  0.00000000E+00  0.00000000E+00
  0.00000000E+00  0.00000000E+00  0.00000000E+00  3.78779279E-01  0.00000000E+00
  0.00000000E+00  4.77343049E-01  0.00000000E+00  0.00000000E+00  2.89559627E-01
  0.00000000E+00  0.00000000E+00  8.83015077E-03  0.00000000E+00  0.00000000E+00
  6.15823827E-03  0.00000000E+00  0.00000000E+00 -4.05571188E-03  0.00000000E+00
  0.00000000E+00  2.45081558E-03  0.00000000E+00  0.00000000E+00 -1.43764197E-03
  0.00000000E+00  0.00000000E+00  8.03364630E-04  0.00000000E+00  0.00000000E+00
 -3.79580979E-04  0.00000000E+00  0.00000000E+00  1.20152110E-04  0.00000000E+00
  0.00000000E+00  0.00000000E+00  4.53122303E-06  0.00000000E+00  0.00000000E+00
  0.00000000E+00  0.00000000E+00 -1.74782787E-06  0.00000000E+00  0.00000000E+00
  0.00000000E+00  0.00000000E+00  2.51924947E-06  0.00000000E+00  0.00000000E+00
  0.00000000E+00  0.00000000E+00 -4.17339580E-06  0.00000000E+00  0.00000000E+00
  0.00000000E+00  0.00000000E+00  7.90601987E-06  0.00000000E+00  0.00000000E+00
  0.00000000E+00  0.00000000E+00 -1.19208745E-05  0.00000000E+00  0.00000000E+00
  0.00000000E+00  0.00000000E+00 -8.02060466E-06  0.00000000E+00  0.00000000E+00
  0.00000000E+00  0.00000000E+00  3.66280705E-06  0.00000000E+00  0.00000000E+00
  0.00000000E+00  0.00000000E+00 -3.23821031E-07  0.00000000E+00  0.00000000E+00
  0.00000000E+00  1.26200137E-12  0.00000000E+00  0.00000000E+00  6.04260907E-08
  0.00000000E+00  0.00000000E+00  0.00000000E+00 -5.81480768E-13  0.00000000E+00
  0.00000000E+00  1.45927581E-05  0.00000000E+00  0.00000000E+00  0.00000000E+00
  2.37029144E-13  0.00000000E+00  0.00000000E+00 -7.05380213E-06  0.00000000E+00
  0.00000000E+00  0.00000000E+00 -3.73444890E-14  0.00000000E+00  0.00000000E+00
 -3.91316702E-05  2.30665740E-04 -8.03904475E-04  1.33575574E-03  0.00000000E+00
  0.00000000E+00  1.40399133E-05  0.00000000E+00  0.00000000E+00  1.18324258E-04
  0.00000000E+00  0.00000000E+00 -1.87234737E-04  2.88263416E-05  0.00000000E+00
  0.00000000E+00 -1.23958140E-15  0.00000000E+00 -7.19641135E-06  0.00000000E+00
  0.00000000E+00  6.61002529E-16  0.00000000E+00 -8.32523231E-05  0.00000000E+00
  0.00000000E+00  2.05855856E-15  0.00000000E+00  0.00000000E+00  0.00000000E+00
  2.19475871E-02  2.58172854E-02  4.14106568E-02  8.06425699E-02  1.00530175E-01
  1.67636083E-04 -4.43242731E-01 -6.39333394E-01  6.39231424E-01  7.94182256E-01
 -6.36902409E-03  3.50790123E-02 -2.36689947E-02  1.53216807E-02 -9.36212835E-03
  5.21364082E-03 -2.39974525E-03  0.00000000E+00  0.00000000E+00 -3.13601738E-05
  0.00000000E+00  0.00000000E+00 -4.68849513E-05  0.00000000E+00  0.00000000E+00
  7.91353837E-06  0.00000000E+00  0.00000000E+00  9.99250547E-05  0.00000000E+00
  0.00000000E+00  9.25763163E-05  0.00000000E+00  0.00000000E+00 -7.99930691E-05
  0.00000000E+00  0.00000000E+00  1.42417859E-04  0.00000000E+00  0.00000000E+00
 -2.23832767E-04  0.00000000E+00  0.00000000E+00  2.66414220E-04  0.00000000E+00
  0.00000000E+00 -5.49098119E-04  0.00000000E+00  0.00000000E+00  7.69160124E-04
  2.19537693E-06  0.00000000E+00  0.00000000E+00  5.18737394E-15  0.00000000E+00
 -1.34319456E-05  0.00000000E+00  0.00000000E+00  4.32987122E-15  0.00000000E+00
  2.11082583E-05  0.00000000E+00  0.00000000E+00 -5.26593337E-15  0.00000000E+00
 -4.60201523E-05  0.00000000E+00  0.00000000E+00  2.71259351E-15  0.00000000E+00
  8.75307577E-05  0.00000000E+00  0.00000000E+00 -1.80173406E-17  0.00000000E+00
 -1.23364039E-04  0.00000000E+00  0.00000000E+00  1.04206867E-15  0.00000000E+00
  2.65152744E-04  0.00000000E+00  0.00000000E+00 -4.88212318E-16  0.00000000E+00
 -2.99298440E-04  0.00000000E+00  0.00000000E+00  9.78041069E-16  0.00000000E+00
 -3.98081640E-06  0.00000000E+00  0.00000000E+00  1.74082440E-16  0.00000000E+00