AuH: recontracted SARC + def2-qzvpp                                     
SP        RPBE1PBE                                                    Gen                 
Number of atoms                            I                2
Info1-9                                    I   N=           9
         144         143           0           0           0         110
           1          18        -302
Charge                                     I                0
Multiplicity                               I                1
Number of electrons                        I               80
Number of alpha electrons                  I               40
Number of beta electrons                   I               40
Number of basis functions                  I              150
Number of independent functions            I              150
Number of point charges in /Mol/           I                0
Number of translation vectors              I                0
Atomic numbers                             I   N=           2
           1          79
Nuclear charges                            R   N=           2
  1.00000000E+00  7.90000000E+01
Current cartesian coordinates              R   N=           6
  0.00000000E+00  0.00000000E+00 -2.85551845E+00  0.00000000E+00  0.00000000E+00
  3.61458032E-02
Force Field                                I                0
Int Atom Types                             I   N=           2
           0           0
MM charges                                 R   N=           2
  0.00000000E+00  0.00000000E+00
Integer atomic weights                     I   N=           2
           1         197
Real atomic weights                        R   N=           2
  1.00782504E+00  1.96966600E+02
Atom fragment info                         I   N=           2
           0           0
Atom residue num                           I   N=           2
           0           0
Nuclear spins                              I   N=           2
           1           3
Nuclear ZEff                               R   N=           2
 -1.00000000E+00  0.00000000E+00
Nuclear QMom                               R   N=           2
  0.00000000E+00  5.47000000E+01
Nuclear GFac                               R   N=           2
  2.79284600E+00  1.48159000E-01
MicOpt                                     I   N=           2
          -1          -1
Number of contracted shells                I               50
Number of primitive shells                 I               68
Pure/Cartesian d shells                    I                0
Pure/Cartesian f shells                    I                0
Highest angular momentum                   I                4
Largest degree of contraction              I                6
Shell types                                I   N=          50
           0           0           0           0           1           1
           1          -2          -2          -3           0           0
           0           0           0           0           0           0
           0           0           0           0           0           0
           0           0           0           1           1           1
           1           1           1           1           1           1
           1           1          -2          -2          -2          -2
          -2          -2          -2          -2          -3          -3
          -3          -4
Number of primitives per shell             I   N=          50
           4           1           1           1           1           1
           1           1           1           1           6           1
           1           1           1           1           1           1
           1           1           1           1           1           1
           1           1           1           5           1           1
           1           1           1           1           1           1
           1           1           4           1           1           1
           1           1           1           1           4           1
           1           1
Shell to atom map                          I   N=          50
           1           1           1           1           1           1
           1           1           1           1           2           2
           2           2           2           2           2           2
           2           2           2           2           2           2
           2           2           2           2           2           2
           2           2           2           2           2           2
           2           2           2           2           2           2
           2           2           2           2           2           2
           2           2
Primitive exponents                        R   N=          68
  1.90691690E+02  2.86055320E+01  6.50959430E+00  1.84124550E+00  5.98537250E-01
  2.13976240E-01  8.03162860E-02  2.29200000E+00  8.38000000E-01  2.92000000E-01
  2.06200000E+00  6.62000000E-01  1.39700000E+00  1.73343595E+06  7.70415977E+05
  3.42407101E+05  1.52180934E+05  6.76359705E+04  3.00604313E+04  1.33601917E+04
  5.93786298E+03  2.63905021E+03  1.17291121E+03  5.21293869E+02  2.31686164E+02
  1.02971629E+02  4.57651680E+01  2.03400750E+01  9.04003300E+00  4.01779300E+00
  1.78568600E+00  7.93638000E-01  3.52728000E-01  1.56768000E-01  6.96750000E-02
  2.42948435E+04  9.71793740E+03  3.88717496E+03  1.55486998E+03  6.21947994E+02
  2.48779197E+02  9.95116790E+01  3.98046720E+01  1.59218690E+01  6.36874700E+00
  2.54749900E+00  1.01900000E+00  4.07600000E-01  1.63040000E-01  6.52160000E-02
  1.86912758E+03  6.79682755E+02  2.47157366E+02  8.98754060E+01  3.26819660E+01
  1.18843510E+01  4.32158200E+00  1.57148400E+00  5.71449000E-01  2.07800000E-01
  7.55630000E-02  9.08433260E+01  3.02811090E+01  1.00937030E+01  3.36456800E+00
  1.12152300E+00  3.73841000E-01  1.14690000E+00
Contraction coefficients                   R   N=          68
  5.32528021E-03  4.12592150E-02  2.11011743E-01  8.12112102E-01  1.00000000E+00
  1.00000000E+00  1.00000000E+00  1.00000000E+00  1.00000000E+00  1.00000000E+00
  1.00000000E+00  1.00000000E+00  1.00000000E+00  1.12675980E-01 -6.05231725E-02
  2.11247845E-01  5.68569562E-02  3.84491787E-01  4.53724562E-01  1.00000000E+00
  1.00000000E+00  1.00000000E+00  1.00000000E+00  1.00000000E+00  1.00000000E+00
  1.00000000E+00  1.00000000E+00  1.00000000E+00  1.00000000E+00  1.00000000E+00
  1.00000000E+00  1.00000000E+00  1.00000000E+00  1.00000000E+00  1.00000000E+00
  1.65709658E-02  1.84724877E-02  9.15558291E-02  2.55721577E-01  7.29484714E-01
  1.00000000E+00  1.00000000E+00  1.00000000E+00  1.00000000E+00  1.00000000E+00
  1.00000000E+00  1.00000000E+00  1.00000000E+00  1.00000000E+00  1.00000000E+00
  8.45149474E-03  4.50394340E-02  2.46408267E-01  8.04578017E-01  1.00000000E+00
  1.00000000E+00  1.00000000E+00  1.00000000E+00  1.00000000E+00  1.00000000E+00
  1.00000000E+00  6.08413256E-02  2.89929071E-01  5.68801471E-01  3.78085359E-01
  1.00000000E+00  1.00000000E+00  1.00000000E+00
Coordinates of each shell                  R   N=         150
  0.00000000E+00  0.00000000E+00 -2.85551845E+00  0.00000000E+00  0.00000000E+00
 -2.85551845E+00  0.00000000E+00  0.00000000E+00 -2.85551845E+00  0.00000000E+00
  0.00000000E+00 -2.85551845E+00  0.00000000E+00  0.00000000E+00 -2.85551845E+00
  0.00000000E+00  0.00000000E+00 -2.85551845E+00  0.00000000E+00  0.00000000E+00
 -2.85551845E+00  0.00000000E+00  0.00000000E+00 -2.85551845E+00  0.00000000E+00
  0.00000000E+00 -2.85551845E+00  0.00000000E+00  0.00000000E+00 -2.85551845E+00
  0.00000000E+00  0.00000000E+00  3.61458032E-02  0.00000000E+00  0.00000000E+00
  3.61458032E-02  0.00000000E+00  0.00000000E+00  3.61458032E-02  0.00000000E+00
  0.00000000E+00  3.61458032E-02  0.00000000E+00  0.00000000E+00  3.61458032E-02
  0.00000000E+00  0.00000000E+00  3.61458032E-02  0.00000000E+00  0.00000000E+00
  3.61458032E-02  0.00000000E+00  0.00000000E+00  3.61458032E-02  0.00000000E+00
  0.00000000E+00  3.61458032E-02  0.00000000E+00  0.00000000E+00  3.61458032E-02
  0.00000000E+00  0.00000000E+00  3.61458032E-02  0.00000000E+00  0.00000000E+00
  3.61458032E-02  0.00000000E+00  0.00000000E+00  3.61458032E-02  0.00000000E+00
  0.00000000E+00  3.61458032E-02  0.00000000E+00  0.00000000E+00  3.61458032E-02
  0.00000000E+00  0.00000000E+00  3.61458032E-02  0.00000000E+00  0.00000000E+00
  3.61458032E-02  0.00000000E+00  0.00000000E+00  3.61458032E-02  0.00000000E+00
  0.00000000E+00  3.61458032E-02  0.00000000E+00  0.00000000E+00  3.61458032E-02
  0.00000000E+00  0.00000000E+00  3.61458032E-02  0.00000000E+00  0.00000000E+00
  3.61458032E-02  0.00000000E+00  0.00000000E+00  3.61458032E-02  0.00000000E+00
  0.00000000E+00  3.61458032E-02  0.00000000E+00  0.00000000E+00  3.61458032E-02
  0.00000000E+00  0.00000000E+00  3.61458032E-02  0.00000000E+00  0.00000000E+00
  3.61458032E-02  0.00000000E+00  0.00000000E+00  3.61458032E-02  0.00000000E+00
  0.00000000E+00  3.61458032E-02  0.00000000E+00  0.00000000E+00  3.61458032E-02
  0.00000000E+00  0.00000000E+00  3.61458032E-02  0.00000000E+00  0.00000000E+00
  3.61458032E-02  0.00000000E+00  0.00000000E+00  3.61458032E-02  0.00000000E+00
  0.00000000E+00  3.61458032E-02  0.00000000E+00  0.00000000E+00  3.61458032E-02
  0.00000000E+00  0.00000000E+00  3.61458032E-02  0.00000000E+00  0.00000000E+00
  3.61458032E-02  0.00000000E+00  0.00000000E+00  3.61458032E-02  0.00000000E+00
  0.00000000E+00  3.61458032E-02  0.00000000E+00  0.00000000E+00  3.61458032E-02
Constraint Structure                       R   N=           6
  0.00000000E+00  0.00000000E+00 -2.85551845E+00  0.00000000E+00  0.00000000E+00
  3.61458032E-02
Num ILSW                                   I              100
ILSW                                       I   N=         100
           0           0           0           0           2           0
           0           0           0           0        1009          -1
           5           0           0           0           0           0
           0           0           0           0           0           0
           1           0           0           0           0           8
           0           0      100000           0          -1           0
           0           0           0           0           0           0
           0           0           0           1           0           0
           0           0           1           0           0           0
           0           0           4          40           0           0
           0           0          13           0           0           0
           0           0           0           0           0           0
           0           0           0           0           0           0
           0           0           0           0           0           0
           0           0           0           0           0           0
           0           0           0           0           0           0
           0           0           0           0
Num RLSW                                   I               40
RLSW                                       R   N=          40
  7.50000000E-01  7.50000000E-01  1.00000000E+00  1.00000000E+00  2.50000000E-01
  0.00000000E+00  0.00000000E+00  1.00000000E+00  0.00000000E+00  0.00000000E+00
  0.00000000E+00  0.00000000E+00  1.00000000E+00  0.00000000E+00  0.00000000E+00
  0.00000000E+00  0.00000000E+00  1.00000000E+00  0.00000000E+00  0.00000000E+00
  0.00000000E+00  0.00000000E+00  1.00000000E+00  0.00000000E+00  0.00000000E+00
  0.00000000E+00  0.00000000E+00  1.00000000E+00  0.00000000E+00  0.00000000E+00
  0.00000000E+00  0.00000000E+00  0.00000000E+00  0.00000000E+00  0.00000000E+00
  0.00000000E+00  0.00000000E+00  0.00000000E+00  1.00000000E+00  1.00000000E+00
MxBond                                     I                1
NBond                                      I   N=           2
           1           1
IBond                                      I   N=           2
           2           1
RBond                                      R   N=           2
  2.00000000E+00  2.00000000E+00
Virial Ratio                               R      2.003632290581292E+00
SCF Energy                                 R     -1.783077163227748E+04
Total Energy                               R     -1.783077163227748E+04
RMS Density                                R      5.319248302374450E-09
External E-field                           R   N=          35
  0.00000000E+00  0.00000000E+00  0.00000000E+00  0.00000000E+00  0.00000000E+00
  0.00000000E+00  0.00000000E+00  0.00000000E+00  0.00000000E+00  0.00000000E+00
  0.00000000E+00  0.00000000E+00  0.00000000E+00  0.00000000E+00  0.00000000E+00
  0.00000000E+00  0.00000000E+00  0.00000000E+00  0.00000000E+00  0.00000000E+00
  0.00000000E+00  0.00000000E+00  0.00000000E+00  0.00000000E+00  0.00000000E+00
  0.00000000E+00  0.00000000E+00  0.00000000E+00  0.00000000E+00  0.00000000E+00
  0.00000000E+00  0.00000000E+00  0.00000000E+00  0.00000000E+00  0.00000000E+00
IOpCl                                      I                0
IROHF                                      I                0
Alpha Orbital Energies                     R   N=         150
 -2.68434081E+03 -4.50315594E+02 -4.31612313E+02 -4.31612092E+02 -4.31612092E+02
 -1.06338654E+02 -9.75795434E+01 -9.75795434E+01 -9.75783804E+01 -8.27890660E+01
 -8.27890660E+01 -8.27882360E+01 -8.27882360E+01 -8.27880400E+01 -2.28483738E+01
 -1.91142220E+01 -1.91142220E+01 -1.91131048E+01 -1.26603741E+01 -1.26603739E+01
 -1.26593817E+01 -1.26590762E+01 -1.26590762E+01 -3.83403431E+00 -3.83403431E+00
 -3.83365232E+00 -3.83318091E+00 -3.83318091E+00 -3.83293049E+00 -3.83292953E+00
 -3.32597519E+00 -2.15124509E+00 -2.13920620E+00 -2.13920620E+00 -4.43012067E-01
 -3.80785084E-01 -3.80785084E-01 -3.70077137E-01 -3.70077002E-01 -2.37251354E-01
 -6.48655372E-02  7.80247231E-03  7.80247231E-03  1.25567208E-01  1.60800186E-01
  1.60800186E-01  1.62154295E-01  1.68310613E-01  1.68310624E-01  2.29712694E-01
  3.07617892E-01  3.35076223E-01  3.35076223E-01  4.68816696E-01  5.94140106E-01
  5.94140106E-01  7.64892391E-01  7.64892513E-01  7.65233040E-01  7.65233040E-01
  7.98380369E-01  8.52116644E-01  9.53700557E-01  9.53700684E-01  9.69648299E-01
  9.69648299E-01  1.12757723E+00  1.15235572E+00  1.15235572E+00  1.37756033E+00
  1.49562421E+00  1.56990406E+00  1.56990406E+00  1.67746950E+00  2.00758181E+00
  2.00758181E+00  2.20552103E+00  2.20552103E+00  2.40434470E+00  2.50218436E+00
  2.50218436E+00  2.85309010E+00  2.85309010E+00  2.87643667E+00  2.87643676E+00
  2.90700818E+00  2.90700818E+00  2.94314535E+00  3.06045782E+00  3.06045896E+00
  3.09019195E+00  3.15292967E+00  3.15292967E+00  3.70928294E+00  3.89898539E+00
  3.89898539E+00  3.90103433E+00  3.90103436E+00  3.90703795E+00  3.90703860E+00
  4.20852897E+00  4.20852897E+00  4.33781540E+00  5.22745932E+00  5.78450787E+00
  5.81231731E+00  5.81231731E+00  5.96993234E+00  5.96993236E+00  6.55616188E+00
  6.55616188E+00  6.67095763E+00  7.09577298E+00  7.09577298E+00  7.57681015E+00
  7.66586922E+00  7.66586922E+00  7.92712448E+00  7.92712461E+00  8.36093888E+00
  8.36093888E+00  8.63990898E+00  9.14157824E+00  1.48168956E+01  1.48168996E+01
  1.48951668E+01  1.48951668E+01  1.52350056E+01  2.26280938E+01  4.06501445E+01
  4.06501445E+01  4.08725608E+01  9.25672201E+01  9.25672213E+01  9.26054462E+01
  9.26054462E+01  9.27766368E+01  1.06566393E+02  2.40205330E+02  2.40205330E+02
  2.40355767E+02  4.66316422E+02  1.42290685E+03  1.42290685E+03  1.42302119E+03
  1.70573400E+03  5.27627679E+03  1.50663974E+04  4.02536094E+04  2.73891246E+05
Alpha MO coefficients                      R   N=       22500
 -7.35620388E-06  4.68117725E-05 -1.70399052E-04  2.71466463E-04  0.00000000E+00
  0.00000000E+00  3.96385398E-06  0.00000000E+00  0.00000000E+00  2.22251926E-05
  0.00000000E+00  0.00000000E+00 -4.17822381E-05  6.00938738E-06  0.00000000E+00
  0.00000000E+00  1.01624559E-15  0.00000000E+00 -3.87923066E-06  0.00000000E+00
  0.00000000E+00 -6.70600490E-16  0.00000000E+00 -1.82964187E-05  0.00000000E+00
  0.00000000E+00 -2.12946007E-16  0.00000000E+00  0.00000000E+00  0.00000000E+00
  1.68012177E-02  1.09530564E-01  7.62537878E-02  3.64775966E-01  3.14319276E-01
  2.70424884E-01 -3.07452283E-02  3.62910876E-02 -2.56983758E-02  1.75409262E-02
 -1.17375678E-02  7.74773290E-03 -5.04446871E-03  3.20372737E-03 -1.92835887E-03
  1.07006451E-03 -4.88040673E-04  0.00000000E+00  0.00000000E+00  8.22279520E-07
  0.00000000E+00  0.00000000E+00 -1.04396008E-06  0.00000000E+00  0.00000000E+00
  2.89718730E-06  0.00000000E+00  0.00000000E+00 -5.80824585E-06  0.00000000E+00
  0.00000000E+00  1.05749477E-05  0.00000000E+00  0.00000000E+00 -1.84105572E-05
  0.00000000E+00  0.00000000E+00  3.07727975E-05  0.00000000E+00  0.00000000E+00
 -4.57144446E-05  0.00000000E+00  0.00000000E+00  5.09974952E-05  0.00000000E+00
  0.00000000E+00 -1.14480259E-04  0.00000000E+00  0.00000000E+00  1.56014182E-04
  6.33162596E-07  0.00000000E+00  0.00000000E+00 -7.49597540E-16  0.00000000E+00
 -2.14529218E-06  0.00000000E+00  0.00000000E+00  1.08247592E-15  0.00000000E+00
  5.02392153E-06  0.00000000E+00  0.00000000E+00  5.56503195E-17  0.00000000E+00
 -1.00629062E-05  0.00000000E+00  0.00000000E+00 -1.11776592E-15  0.00000000E+00
  1.78340727E-05  0.00000000E+00  0.00000000E+00  1.32078884E-15  0.00000000E+00
 -2.30973329E-05  0.00000000E+00  0.00000000E+00 -6.87957185E-16  0.00000000E+00
  5.54370295E-05  0.00000000E+00  0.00000000E+00  2.68344176E-16  0.00000000E+00
 -6.05609070E-05  0.00000000E+00  0.00000000E+00 -1.26759624E-16  0.00000000E+00
  7.11773046E-08  0.00000000E+00  0.00000000E+00 -3.54740667E-16  0.00000000E+00
  0.00000000E+00  0.00000000E+00 -1.33303952E-06  0.00000000E+00  0.00000000E+00
  8.52865379E-16  0.00000000E+00  0.00000000E+00  0.00000000E+00  1.38465015E-07
  0.00000000E+00  0.00000000E+00 -7.29505721E-16  0.00000000E+00  0.00000000E+00
  0.00000000E+00 -1.66983536E-06  0.00000000E+00  0.00000000E+00  4.70588873E-17
  0.00000000E+00  0.00000000E+00  0.00000000E+00 -1.20126972E-13  0.00000000E+00
  3.40985369E-06 -2.20443964E-05  8.09197013E-05 -1.28571098E-04  0.00000000E+00
  0.00000000E+00 -1.91415539E-06  0.00000000E+00  0.00000000E+00 -1.03798928E-05
  0.00000000E+00  0.00000000E+00  1.99242565E-05 -2.81932430E-06  0.00000000E+00
  0.00000000E+00  5.32876117E-17  0.00000000E+00  1.93857128E-06  0.00000000E+00
  0.00000000E+00 -4.86194966E-17  0.00000000E+00  8.65431150E-06  0.00000000E+00
  0.00000000E+00 -5.68760433E-16  0.00000000E+00  0.00000000E+00  0.00000000E+00
 -5.62049672E-03 -3.84098254E-02 -2.98773058E-02 -1.54804003E-01 -1.95855895E-01
 -2.00372830E-01  4.08434370E-01  6.71950037E-01  1.53904296E-01 -1.17269903E-02
  6.45345163E-03 -3.89465353E-03  2.43869634E-03 -1.52518643E-03  9.14644328E-04
 -5.07117010E-04  2.31156816E-04  0.00000000E+00  0.00000000E+00  5.50998860E-05
  0.00000000E+00  0.00000000E+00  1.11984716E-04  0.00000000E+00  0.00000000E+00
  6.46021192E-05  0.00000000E+00  0.00000000E+00  1.47046808E-05  0.00000000E+00
  0.00000000E+00 -8.03254051E-06  0.00000000E+00  0.00000000E+00  1.04018822E-05
  0.00000000E+00  0.00000000E+00 -1.54636062E-05  0.00000000E+00  0.00000000E+00
  2.19671416E-05  0.00000000E+00  0.00000000E+00 -2.40980927E-05  0.00000000E+00
  0.00000000E+00  5.43999885E-05  0.00000000E+00  0.00000000E+00 -7.39115845E-05
 -4.73575899E-07  0.00000000E+00  0.00000000E+00  3.16451230E-16  0.00000000E+00
  4.96339082E-07  0.00000000E+00  0.00000000E+00  9.87908131E-16  0.00000000E+00
 -2.06915262E-06  0.00000000E+00  0.00000000E+00  3.85550381E-17  0.00000000E+00
  4.51353369E-06  0.00000000E+00  0.00000000E+00 -5.88146163E-16  0.00000000E+00
 -8.20144587E-06  0.00000000E+00  0.00000000E+00  2.69345396E-16  0.00000000E+00
  1.06710200E-05  0.00000000E+00  0.00000000E+00 -4.63665898E-16  0.00000000E+00
 -2.62602698E-05  0.00000000E+00  0.00000000E+00  7.33436655E-17  0.00000000E+00
  2.86576488E-05  0.00000000E+00  0.00000000E+00 -3.24119323E-16  0.00000000E+00
 -1.01508641E-07  0.00000000E+00  0.00000000E+00 -3.88696573E-16  0.00000000E+00
  0.00000000E+00  0.00000000E+00  6.84987229E-07  0.00000000E+00  0.00000000E+00
  1.51610898E-15  0.00000000E+00  0.00000000E+00  0.00000000E+00 -5.46575280E-09
  0.00000000E+00  0.00000000E+00 -1.13607632E-15  0.00000000E+00  0.00000000E+00
  0.00000000E+00  7.47504696E-07  0.00000000E+00  0.00000000E+00  5.69026984E-17
  0.00000000E+00  0.00000000E+00  0.00000000E+00  3.13584945E-13  0.00000000E+00
  9.19002611E-05 -2.97549511E-04 -1.39902062E-03 -1.11951941E-04  0.00000000E+00
  0.00000000E+00  2.55671914E-05  0.00000000E+00  0.00000000E+00 -2.51945935E-04
  0.00000000E+00  0.00000000E+00 -8.63668324E-04 -1.04845681E-05  0.00000000E+00
  0.00000000E+00  1.26889725E-17  0.00000000E+00 -2.15740774E-04  0.00000000E+00
  0.00000000E+00  3.48072506E-17  0.00000000E+00  7.54369343E-05  0.00000000E+00
  0.00000000E+00 -1.20191570E-16  0.00000000E+00  0.00000000E+00  0.00000000E+00
  1.18570369E-06  7.99675929E-06  6.70478516E-06  3.13793146E-05  4.47290215E-05
  3.44736117E-05 -7.08010524E-05 -1.76476842E-04  3.58331151E-05 -1.16764267E-04
  2.00884176E-04 -3.31829676E-04  5.37264061E-04 -7.89549378E-04  3.39654380E-04
  1.18678748E-03  8.63856880E-05  0.00000000E+00  0.00000000E+00  2.72326155E-01
  0.00000000E+00  0.00000000E+00  5.44860067E-01  0.00000000E+00  0.00000000E+00
  2.88894111E-01  0.00000000E+00  0.00000000E+00  5.32432287E-02  0.00000000E+00
  0.00000000E+00 -1.80646360E-02  0.00000000E+00  0.00000000E+00  1.09269563E-02
  0.00000000E+00  0.00000000E+00 -6.69999989E-03  0.00000000E+00  0.00000000E+00
  4.22717075E-03  0.00000000E+00  0.00000000E+00 -2.72301457E-03  0.00000000E+00
  0.00000000E+00  4.28663219E-05  0.00000000E+00  0.00000000E+00 -3.16359029E-04
  5.59331900E-06  0.00000000E+00  0.00000000E+00 -2.97557431E-16  0.00000000E+00
  1.32128707E-05  0.00000000E+00  0.00000000E+00 -3.88905580E-16  0.00000000E+00
 -3.59788543E-05  0.00000000E+00  0.00000000E+00 -8.93094089E-16  0.00000000E+00
  7.91513081E-05  0.00000000E+00  0.00000000E+00  6.01059208E-16  0.00000000E+00
 -1.64450795E-04  0.00000000E+00  0.00000000E+00 -5.95325774E-16  0.00000000E+00
  2.93227529E-04  0.00000000E+00  0.00000000E+00  6.50440409E-16  0.00000000E+00
  6.25096064E-04  0.00000000E+00  0.00000000E+00  8.32859588E-16  0.00000000E+00
 -1.91634213E-05  0.00000000E+00  0.00000000E+00 -1.64214432E-17  0.00000000E+00
 -1.90730857E-06  0.00000000E+00  0.00000000E+00 -3.46914107E-17  0.00000000E+00
  0.00000000E+00  0.00000000E+00  2.67100621E-05  0.00000000E+00  0.00000000E+00
 -1.30497193E-16  0.00000000E+00  0.00000000E+00  0.00000000E+00 -3.49822074E-04
  0.00000000E+00  0.00000000E+00 -1.72943096E-16  0.00000000E+00  0.00000000E+00
  0.00000000E+00  6.76142681E-05  0.00000000E+00  0.00000000E+00  2.88258962E-16
  0.00000000E+00  0.00000000E+00  0.00000000E+00  1.06156925E-13  0.00000000E+00
  0.00000000E+00  0.00000000E+00  0.00000000E+00  0.00000000E+00  0.00000000E+00
 -1.40931540E-05  0.00000000E+00  0.00000000E+00  3.60595152E-05  0.00000000E+00
  0.00000000E+00  7.26921353E-06  0.00000000E+00  0.00000000E+00  0.00000000E+00
 -9.62008484E-06  0.00000000E+00  0.00000000E+00  0.00000000E+00  0.00000000E+00
  7.16269662E-05  0.00000000E+00  0.00000000E+00  0.00000000E+00  0.00000000E+00
  2.19929807E-05  0.00000000E+00  0.00000000E+00  0.00000000E+00  1.06725452E-14
  0.00000000E+00  0.00000000E+00  0.00000000E+00  0.00000000E+00  0.00000000E+00
  0.00000000E+00  0.00000000E+00  0.00000000E+00  0.00000000E+00  0.00000000E+00
  0.00000000E+00  0.00000000E+00  0.00000000E+00  0.00000000E+00  0.00000000E+00
  0.00000000E+00  0.00000000E+00  0.00000000E+00  2.72326432E-01  0.00000000E+00
  0.00000000E+00  5.44855000E-01  0.00000000E+00  0.00000000E+00  2.88909564E-01
  0.00000000E+00  0.00000000E+00  5.32090779E-02  0.00000000E+00  0.00000000E+00
 -1.79950700E-02  0.00000000E+00  0.00000000E+00  1.07968883E-02  0.00000000E+00
  0.00000000E+00 -6.46105613E-03  0.00000000E+00  0.00000000E+00  3.78001514E-03
  0.00000000E+00  0.00000000E+00 -2.10787794E-03  0.00000000E+00  0.00000000E+00
  9.96106639E-04  0.00000000E+00  0.00000000E+00 -3.15252830E-04  0.00000000E+00
  0.00000000E+00  0.00000000E+00  7.87395545E-06  0.00000000E+00  0.00000000E+00
  0.00000000E+00  0.00000000E+00  5.58930892E-07  0.00000000E+00  0.00000000E+00
  0.00000000E+00  0.00000000E+00 -3.52791086E-06  0.00000000E+00  0.00000000E+00
  0.00000000E+00  0.00000000E+00  9.23128776E-06  0.00000000E+00  0.00000000E+00
  0.00000000E+00  0.00000000E+00 -1.98733071E-05  0.00000000E+00  0.00000000E+00
  0.00000000E+00  0.00000000E+00  3.07957326E-05  0.00000000E+00  0.00000000E+00
  0.00000000E+00  0.00000000E+00  2.12393384E-05  0.00000000E+00  0.00000000E+00
  0.00000000E+00  0.00000000E+00 -9.66845359E-06  0.00000000E+00  0.00000000E+00
  0.00000000E+00  0.00000000E+00  4.89278324E-07  0.00000000E+00  0.00000000E+00
  0.00000000E+00 -2.19962580E-12  0.00000000E+00  0.00000000E+00  7.88298881E-08
  0.00000000E+00  0.00000000E+00  0.00000000E+00  1.29848092E-12  0.00000000E+00
  0.00000000E+00 -3.82891574E-05  0.00000000E+00  0.00000000E+00  0.00000000E+00
 -5.40344923E-13  0.00000000E+00  0.00000000E+00  1.84669894E-05  0.00000000E+00
  0.00000000E+00  0.00000000E+00 -5.61060141E-14  0.00000000E+00  0.00000000E+00
  0.00000000E+00  0.00000000E+00  0.00000000E+00  0.00000000E+00 -1.40931540E-05
  0.00000000E+00  0.00000000E+00  3.60595152E-05  0.00000000E+00  0.00000000E+00
  7.26921353E-06  0.00000000E+00  0.00000000E+00  0.00000000E+00 -9.62008485E-06
  0.00000000E+00  0.00000000E+00  0.00000000E+00  0.00000000E+00  7.16269662E-05
  0.00000000E+00  0.00000000E+00  0.00000000E+00  0.00000000E+00  2.19929807E-05
  0.00000000E+00  0.00000000E+00  0.00000000E+00 -1.10781145E-14  0.00000000E+00
  0.00000000E+00  0.00000000E+00  0.00000000E+00  0.00000000E+00  0.00000000E+00
  0.00000000E+00  0.00000000E+00  0.00000000E+00  0.00000000E+00  0.00000000E+00
  0.00000000E+00  0.00000000E+00  0.00000000E+00  0.00000000E+00  0.00000000E+00
  0.00000000E+00  0.00000000E+00  2.72326432E-01  0.00000000E+00  0.00000000E+00
  5.44855000E-01  0.00000000E+00  0.00000000E+00  2.88909564E-01  0.00000000E+00
  0.00000000E+00  5.32090779E-02  0.00000000E+00  0.00000000E+00 -1.79950700E-02
  0.00000000E+00  0.00000000E+00  1.07968883E-02  0.00000000E+00  0.00000000E+00
 -6.46105613E-03  0.00000000E+00  0.00000000E+00  3.78001514E-03  0.00000000E+00
  0.00000000E+00 -2.10787794E-03  0.00000000E+00  0.00000000E+00  9.96106639E-04
  0.00000000E+00  0.00000000E+00 -3.15252830E-04  0.00000000E+00  0.00000000E+00
  0.00000000E+00  7.87395545E-06  0.00000000E+00  0.00000000E+00  0.00000000E+00
  0.00000000E+00  5.58930893E-07  0.00000000E+00  0.00000000E+00  0.00000000E+00
  0.00000000E+00 -3.52791086E-06  0.00000000E+00  0.00000000E+00  0.00000000E+00
  0.00000000E+00  9.23128776E-06  0.00000000E+00  0.00000000E+00  0.00000000E+00
  0.00000000E+00 -1.98733071E-05  0.00000000E+00  0.00000000E+00  0.00000000E+00
  0.00000000E+00  3.07957326E-05  0.00000000E+00  0.00000000E+00  0.00000000E+00
  0.00000000E+00  2.12393384E-05  0.00000000E+00  0.00000000E+00  0.00000000E+00
  0.00000000E+00 -9.66845359E-06  0.00000000E+00  0.00000000E+00  0.00000000E+00
  0.00000000E+00  4.89278325E-07  0.00000000E+00  0.00000000E+00  0.00000000E+00
  2.20029236E-12  0.00000000E+00  0.00000000E+00  7.88298877E-08  0.00000000E+00
  0.00000000E+00  0.00000000E+00 -1.30031975E-12  0.00000000E+00  0.00000000E+00
 -3.82891574E-05  0.00000000E+00  0.00000000E+00  0.00000000E+00  5.41466338E-13
  0.00000000E+00  0.00000000E+00  1.84669894E-05  0.00000000E+00  0.00000000E+00
  0.00000000E+00  5.84900143E-14  0.00000000E+00  0.00000000E+00  0.00000000E+00
 -4.99329390E-05  2.79581267E-04 -9.28530654E-04  1.59765088E-03  0.00000000E+00
  0.00000000E+00  1.31642992E-05  0.00000000E+00  0.00000000E+00  1.49826063E-04
  0.00000000E+00  0.00000000E+00 -2.05862274E-04  3.45505855E-05  0.00000000E+00
  0.00000000E+00 -7.22063718E-16  0.00000000E+00  5.91247339E-07  0.00000000E+00
  0.00000000E+00  2.13306902E-16  0.00000000E+00 -9.64190590E-05  0.00000000E+00
  0.00000000E+00 -1.80339181E-16  0.00000000E+00  0.00000000E+00  0.00000000E+00
  2.66509848E-03  1.82968819E-02  1.46912104E-02  7.56349855E-02  1.04229972E-01
  1.09525019E-01 -2.95193250E-01 -8.06320849E-01  2.94055652E-01  1.01902500E+00
  5.69855455E-02  3.70983397E-02 -2.68789135E-02  1.79213572E-02 -1.11013144E-02
  6.19160597E-03 -2.86901430E-03  0.00000000E+00  0.00000000E+00 -1.08541844E-04
  0.00000000E+00  0.00000000E+00 -2.58990575E-04  0.00000000E+00  0.00000000E+00
 -2.41845426E-05  0.00000000E+00  0.00000000E+00  5.21064266E-04  0.00000000E+00
  0.00000000E+00  3.73335852E-04  0.00000000E+00  0.00000000E+00 -1.18497300E-04
  0.00000000E+00  0.00000000E+00  1.89089352E-04  0.00000000E+00  0.00000000E+00
 -2.84972426E-04  0.00000000E+00  0.00000000E+00  3.42214740E-04  0.00000000E+00
  0.00000000E+00 -6.44074188E-04  0.00000000E+00  0.00000000E+00  9.21774750E-04
 -9.38172542E-06  0.00000000E+00  0.00000000E+00 -1.30500789E-14  0.00000000E+00
 -2.91656711E-05  0.00000000E+00  0.00000000E+00 -2.20827318E-14  0.00000000E+00
  1.79856986E-05  0.00000000E+00  0.00000000E+00  6.80181811E-15  0.00000000E+00
 -5.44870624E-05  0.00000000E+00  0.00000000E+00 -2.73423230E-15  0.00000000E+00
  1.07380624E-04  0.00000000E+00  0.00000000E+00  4.86743045E-16  0.00000000E+00
 -1.57500092E-04  0.00000000E+00  0.00000000E+00  8.24472614E-16  0.00000000E+00
  3.07785783E-04  0.00000000E+00  0.00000000E+00 -7.97025306E-16  0.00000000E+00
 -3.58779538E-04  0.00000000E+00  0.00000000E+00  5.12778947E-16  0.00000000E+00
 -3.30151220E-06  0.00000000E+00  0.00000000E+00  1.72004126E-16  0.00000000E+00