[Molden Format]                                                                 
[ATOMS] AU                                                                      
F        1    9        0.2020310666       -2.7991564408       -0.9000465948     
O        2    8       -0.7276904676       -0.9230682567        1.0690552917     
O        3    8        0.7276904676        0.9230682567        1.0690552917     
F        4    9       -0.2020310666        2.7991564408       -0.9000465948     
[Molden Format]                                                                 
[GTO]                                                                           
  1 0                                                                           
s  10 1.00                                                                      
   19500.0000000000       5.070000000000000E-004                                
   2923.00000000000       3.923000000000000E-003                                
   664.500000000000       2.020000000000000E-002                                
   187.500000000000       7.901000000000000E-002                                
   60.6200000000000       0.230439000000000                                     
   21.4200000000000       0.432872000000000                                     
   7.95000000000000       0.349964000000000                                     
   2.25700000000000       4.323300000000000E-002                                
  0.881500000000000      -7.892000000000000E-003                                
  0.304100000000000       2.384000000000000E-003                                
s  10 1.00                                                                      
   19500.0000000000      -1.170000000000000E-004                                
   2923.00000000000      -9.120000000000001E-004                                
   664.500000000000      -4.717000000000000E-003                                
   187.500000000000      -1.908600000000000E-002                                
   60.6200000000000      -5.965500000000000E-002                                
   21.4200000000000      -0.140010000000000                                     
   7.95000000000000      -0.176782000000000                                     
   2.25700000000000       0.171625000000000                                     
  0.881500000000000       0.605043000000000                                     
  0.304100000000000       0.369512000000000                                     
s  10 1.00                                                                      
   19500.0000000000       0.000000000000000E+000                                
   2923.00000000000       0.000000000000000E+000                                
   664.500000000000       0.000000000000000E+000                                
   187.500000000000       0.000000000000000E+000                                
   60.6200000000000       0.000000000000000E+000                                
   21.4200000000000       0.000000000000000E+000                                
   7.95000000000000       0.000000000000000E+000                                
   2.25700000000000        1.00000000000000                                     
  0.881500000000000       0.000000000000000E+000                                
  0.304100000000000       0.000000000000000E+000                                
s  10 1.00                                                                      
   19500.0000000000       0.000000000000000E+000                                
   2923.00000000000       0.000000000000000E+000                                
   664.500000000000       0.000000000000000E+000                                
   187.500000000000       0.000000000000000E+000                                
   60.6200000000000       0.000000000000000E+000                                
   21.4200000000000       0.000000000000000E+000                                
   7.95000000000000       0.000000000000000E+000                                
   2.25700000000000       0.000000000000000E+000                                
  0.881500000000000       0.000000000000000E+000                                
  0.304100000000000        1.00000000000000                                     
p   5 1.00                                                                      
   43.8800000000000       1.666500000000000E-002                                
   9.92600000000000       0.104472000000000                                     
   2.93000000000000       0.317260000000000                                     
  0.913200000000000       0.487343000000000                                     
  0.267200000000000       0.334604000000000                                     
p   5 1.00                                                                      
   43.8800000000000       0.000000000000000E+000                                
   9.92600000000000       0.000000000000000E+000                                
   2.93000000000000       0.000000000000000E+000                                
  0.913200000000000        1.00000000000000                                     
  0.267200000000000       0.000000000000000E+000                                
p   5 1.00                                                                      
   43.8800000000000       0.000000000000000E+000                                
   9.92600000000000       0.000000000000000E+000                                
   2.93000000000000       0.000000000000000E+000                                
  0.913200000000000       0.000000000000000E+000                                
  0.267200000000000        1.00000000000000                                     
d   2 1.00                                                                      
   3.10700000000000        1.00000000000000                                     
  0.855000000000000       0.000000000000000E+000                                
d   2 1.00                                                                      
   3.10700000000000       0.000000000000000E+000                                
  0.855000000000000        1.00000000000000                                     
f   1 1.00                                                                      
   1.91700000000000        1.00000000000000                                     
                                                                                
  4 0                                                                           
s  10 1.00                                                                      
   19500.0000000000       5.070000000000000E-004                                
   2923.00000000000       3.923000000000000E-003                                
   664.500000000000       2.020000000000000E-002                                
   187.500000000000       7.901000000000000E-002                                
   60.6200000000000       0.230439000000000                                     
   21.4200000000000       0.432872000000000                                     
   7.95000000000000       0.349964000000000                                     
   2.25700000000000       4.323300000000000E-002                                
  0.881500000000000      -7.892000000000000E-003                                
  0.304100000000000       2.384000000000000E-003                                
s  10 1.00                                                                      
   19500.0000000000      -1.170000000000000E-004                                
   2923.00000000000      -9.120000000000001E-004                                
   664.500000000000      -4.717000000000000E-003                                
   187.500000000000      -1.908600000000000E-002                                
   60.6200000000000      -5.965500000000000E-002                                
   21.4200000000000      -0.140010000000000                                     
   7.95000000000000      -0.176782000000000                                     
   2.25700000000000       0.171625000000000                                     
  0.881500000000000       0.605043000000000                                     
  0.304100000000000       0.369512000000000                                     
s  10 1.00                                                                      
   19500.0000000000       0.000000000000000E+000                                
   2923.00000000000       0.000000000000000E+000                                
   664.500000000000       0.000000000000000E+000                                
   187.500000000000       0.000000000000000E+000                                
   60.6200000000000       0.000000000000000E+000                                
   21.4200000000000       0.000000000000000E+000                                
   7.95000000000000       0.000000000000000E+000                                
   2.25700000000000        1.00000000000000                                     
  0.881500000000000       0.000000000000000E+000                                
  0.304100000000000       0.000000000000000E+000                                
s  10 1.00                                                                      
   19500.0000000000       0.000000000000000E+000                                
   2923.00000000000       0.000000000000000E+000                                
   664.500000000000       0.000000000000000E+000                                
   187.500000000000       0.000000000000000E+000                                
   60.6200000000000       0.000000000000000E+000                                
   21.4200000000000       0.000000000000000E+000                                
   7.95000000000000       0.000000000000000E+000                                
   2.25700000000000       0.000000000000000E+000                                
  0.881500000000000       0.000000000000000E+000                                
  0.304100000000000        1.00000000000000                                     
p   5 1.00                                                                      
   43.8800000000000       1.666500000000000E-002                                
   9.92600000000000       0.104472000000000                                     
   2.93000000000000       0.317260000000000                                     
  0.913200000000000       0.487343000000000                                     
  0.267200000000000       0.334604000000000                                     
p   5 1.00                                                                      
   43.8800000000000       0.000000000000000E+000                                
   9.92600000000000       0.000000000000000E+000                                
   2.93000000000000       0.000000000000000E+000                                
  0.913200000000000        1.00000000000000                                     
  0.267200000000000       0.000000000000000E+000                                
p   5 1.00                                                                      
   43.8800000000000       0.000000000000000E+000                                
   9.92600000000000       0.000000000000000E+000                                
   2.93000000000000       0.000000000000000E+000                                
  0.913200000000000       0.000000000000000E+000                                
  0.267200000000000        1.00000000000000                                     
d   2 1.00                                                                      
   3.10700000000000        1.00000000000000                                     
  0.855000000000000       0.000000000000000E+000                                
d   2 1.00                                                                      
   3.10700000000000       0.000000000000000E+000                                
  0.855000000000000        1.00000000000000                                     
f   1 1.00                                                                      
   1.91700000000000        1.00000000000000                                     
                                                                                
  2 0                                                                           
s  10 1.00                                                                      
   15330.0000000000       5.080000000000000E-004                                
   2299.00000000000       3.929000000000000E-003                                
   522.400000000000       2.024300000000000E-002                                
   147.300000000000       7.918100000000000E-002                                
   47.5500000000000       0.230687000000000                                     
   16.7600000000000       0.433118000000000                                     
   6.20700000000000       0.350260000000000                                     
   1.75200000000000       4.272800000000000E-002                                
  0.688200000000000      -8.154000000000000E-003                                
  0.238400000000000       2.381000000000000E-003                                
s  10 1.00                                                                      
   15330.0000000000      -1.150000000000000E-004                                
   2299.00000000000      -8.950000000000000E-004                                
   522.400000000000      -4.636000000000000E-003                                
   147.300000000000      -1.872400000000000E-002                                
   47.5500000000000      -5.846300000000000E-002                                
   16.7600000000000      -0.136463000000000                                     
   6.20700000000000      -0.175740000000000                                     
   1.75200000000000       0.160934000000000                                     
  0.688200000000000       0.603418000000000                                     
  0.238400000000000       0.378765000000000                                     
s  10 1.00                                                                      
   15330.0000000000       0.000000000000000E+000                                
   2299.00000000000       0.000000000000000E+000                                
   522.400000000000       0.000000000000000E+000                                
   147.300000000000       0.000000000000000E+000                                
   47.5500000000000       0.000000000000000E+000                                
   16.7600000000000       0.000000000000000E+000                                
   6.20700000000000       0.000000000000000E+000                                
   1.75200000000000        1.00000000000000                                     
  0.688200000000000       0.000000000000000E+000                                
  0.238400000000000       0.000000000000000E+000                                
s  10 1.00                                                                      
   15330.0000000000       0.000000000000000E+000                                
   2299.00000000000       0.000000000000000E+000                                
   522.400000000000       0.000000000000000E+000                                
   147.300000000000       0.000000000000000E+000                                
   47.5500000000000       0.000000000000000E+000                                
   16.7600000000000       0.000000000000000E+000                                
   6.20700000000000       0.000000000000000E+000                                
   1.75200000000000       0.000000000000000E+000                                
  0.688200000000000       0.000000000000000E+000                                
  0.238400000000000        1.00000000000000                                     
p   5 1.00                                                                      
   34.4600000000000       1.592800000000000E-002                                
   7.74900000000000       9.974000000000000E-002                                
   2.28000000000000       0.310492000000000                                     
  0.715600000000000       0.491026000000000                                     
  0.214000000000000       0.336337000000000                                     
p   5 1.00                                                                      
   34.4600000000000       0.000000000000000E+000                                
   7.74900000000000       0.000000000000000E+000                                
   2.28000000000000       0.000000000000000E+000                                
  0.715600000000000        1.00000000000000                                     
  0.214000000000000       0.000000000000000E+000                                
p   5 1.00                                                                      
   34.4600000000000       0.000000000000000E+000                                
   7.74900000000000       0.000000000000000E+000                                
   2.28000000000000       0.000000000000000E+000                                
  0.715600000000000       0.000000000000000E+000                                
  0.214000000000000        1.00000000000000                                     
d   2 1.00                                                                      
   2.31400000000000        1.00000000000000                                     
  0.645000000000000       0.000000000000000E+000                                
d   2 1.00                                                                      
   2.31400000000000       0.000000000000000E+000                                
  0.645000000000000        1.00000000000000                                     
f   1 1.00                                                                      
   1.42800000000000        1.00000000000000                                     
                                                                                
  3 0                                                                           
s  10 1.00                                                                      
   15330.0000000000       5.080000000000000E-004                                
   2299.00000000000       3.929000000000000E-003                                
   522.400000000000       2.024300000000000E-002                                
   147.300000000000       7.918100000000000E-002                                
   47.5500000000000       0.230687000000000                                     
   16.7600000000000       0.433118000000000                                     
   6.20700000000000       0.350260000000000                                     
   1.75200000000000       4.272800000000000E-002                                
  0.688200000000000      -8.154000000000000E-003                                
  0.238400000000000       2.381000000000000E-003                                
s  10 1.00                                                                      
   15330.0000000000      -1.150000000000000E-004                                
   2299.00000000000      -8.950000000000000E-004                                
   522.400000000000      -4.636000000000000E-003                                
   147.300000000000      -1.872400000000000E-002                                
   47.5500000000000      -5.846300000000000E-002                                
   16.7600000000000      -0.136463000000000                                     
   6.20700000000000      -0.175740000000000                                     
   1.75200000000000       0.160934000000000                                     
  0.688200000000000       0.603418000000000                                     
  0.238400000000000       0.378765000000000                                     
s  10 1.00                                                                      
   15330.0000000000       0.000000000000000E+000                                
   2299.00000000000       0.000000000000000E+000                                
   522.400000000000       0.000000000000000E+000                                
   147.300000000000       0.000000000000000E+000                                
   47.5500000000000       0.000000000000000E+000                                
   16.7600000000000       0.000000000000000E+000                                
   6.20700000000000       0.000000000000000E+000                                
   1.75200000000000        1.00000000000000                                     
  0.688200000000000       0.000000000000000E+000                                
  0.238400000000000       0.000000000000000E+000                                
s  10 1.00                                                                      
   15330.0000000000       0.000000000000000E+000                                
   2299.00000000000       0.000000000000000E+000                                
   522.400000000000       0.000000000000000E+000                                
   147.300000000000       0.000000000000000E+000                                
   47.5500000000000       0.000000000000000E+000                                
   16.7600000000000       0.000000000000000E+000                                
   6.20700000000000       0.000000000000000E+000                                
   1.75200000000000       0.000000000000000E+000                                
  0.688200000000000       0.000000000000000E+000                                
  0.238400000000000        1.00000000000000                                     
p   5 1.00                                                                      
   34.4600000000000       1.592800000000000E-002                                
   7.74900000000000       9.974000000000000E-002                                
   2.28000000000000       0.310492000000000                                     
  0.715600000000000       0.491026000000000                                     
  0.214000000000000       0.336337000000000                                     
p   5 1.00                                                                      
   34.4600000000000       0.000000000000000E+000                                
   7.74900000000000       0.000000000000000E+000                                
   2.28000000000000       0.000000000000000E+000                                
  0.715600000000000        1.00000000000000                                     
  0.214000000000000       0.000000000000000E+000                                
p   5 1.00                                                                      
   34.4600000000000       0.000000000000000E+000                                
   7.74900000000000       0.000000000000000E+000                                
   2.28000000000000       0.000000000000000E+000                                
  0.715600000000000       0.000000000000000E+000                                
  0.214000000000000        1.00000000000000                                     
d   2 1.00                                                                      
   2.31400000000000        1.00000000000000                                     
  0.645000000000000       0.000000000000000E+000                                
d   2 1.00                                                                      
   2.31400000000000       0.000000000000000E+000                                
  0.645000000000000        1.00000000000000                                     
f   1 1.00                                                                      
   1.42800000000000        1.00000000000000                                     
                                                                                
[MO]
 Sym= A
 Ene=   1.99965091116791     
 Spin= Alpha
 Occup=   1.99965091116791     
  1        0.7062015514
  2       -0.0092426694
  3        0.0012491653
  4        0.0012110049
  5       -0.0005257442
  6        0.0012785336
  7        0.0012606512
  8        0.0003255002
  9       -0.0007069002
 10       -0.0007385183
 11       -0.0000248136
 12        0.0001363730
 13        0.0000994270
 14        0.0000190934
 15       -0.0000106600
 16       -0.0000084334
 17        0.0000312217
 18        0.0000369005
 19       -0.0000717408
 20        0.0000081551
 21        0.0000071150
 22       -0.0000152701
 23        0.0000273626
 24        0.0000283146
 25       -0.0000445775
 26       -0.0000009744
 27        0.0000012249
 28        0.0000002023
 29        0.0000019928
 30        0.0000004873
 31        0.0000013486
 32        0.0000009303
 33       -0.0000041619
 34       -0.0000019555
 35        0.0000048738
 36       -0.0016384016
 37        0.0015025726
 38       -0.0002906502
 39       -0.0010979768
 40       -0.0002654129
 41        0.0001224227
 42        0.0000739059
 43        0.0000570297
 44       -0.0000301780
 45       -0.0001728938
 46       -0.0002055215
 47        0.0001363555
 48        0.0002776959
 49        0.0000077561
 50        0.0000014455
 51       -0.0000092016
 52        0.0000336602
 53        0.0000172205
 54       -0.0000463576
 55       -0.0000127109
 56        0.0000015384
 57        0.0000111726
 58       -0.0000482176
 59       -0.0000324857
 60        0.0000402895
 61       -0.0000087016
 62        0.0000082157
 63        0.0000043125
 64        0.0000028399
 65        0.0000015705
 66        0.0000052360
 67        0.0000232648
 68       -0.0000262176
 69       -0.0000181735
 70        0.0000439795
 71       -0.0016384016
 72        0.0015025726
 73       -0.0002906502
 74       -0.0010979768
 75        0.0002654129
 76       -0.0001224227
 77        0.0000739059
 78       -0.0000570297
 79        0.0000301780
 80       -0.0001728938
 81        0.0002055215
 82       -0.0001363555
 83        0.0002776959
 84        0.0000077561
 85        0.0000014455
 86       -0.0000092016
 87        0.0000336602
 88       -0.0000172205
 89        0.0000463576
 90       -0.0000127109
 91        0.0000015384
 92        0.0000111726
 93       -0.0000482176
 94        0.0000324857
 95       -0.0000402895
 96        0.0000087016
 97       -0.0000082157
 98        0.0000043125
 99       -0.0000028399
100       -0.0000015705
101        0.0000052360
102       -0.0000232648
103        0.0000262176
104       -0.0000181735
105        0.0000439795
106        0.7062015514
107       -0.0092426694
108        0.0012491653
109        0.0012110049
110        0.0005257442
111       -0.0012785336
112        0.0012606512
113       -0.0003255002
114        0.0007069002
115       -0.0007385183
116        0.0000248136
117       -0.0001363730
118        0.0000994270
119        0.0000190934
120       -0.0000106600
121       -0.0000084334
122        0.0000312217
123       -0.0000369005
124        0.0000717408
125        0.0000081551
126        0.0000071150
127       -0.0000152701
128        0.0000273626
129       -0.0000283146
130        0.0000445775
131        0.0000009744
132       -0.0000012249
133        0.0000002023
134       -0.0000019928
135       -0.0000004873
136        0.0000013486
137       -0.0000009303
138        0.0000041619
139       -0.0000019555
140        0.0000048738
 Sym= A
 Ene=   1.99965091022431     
 Spin= Alpha
 Occup=   1.99965091022431     
  1        0.7062436284
  2       -0.0091250975
  3        0.0012166043
  4        0.0009859425
  5       -0.0005593763
  6        0.0012350876
  7        0.0012847723
  8        0.0003373916
  9       -0.0007191344
 10       -0.0007289035
 11       -0.0000397786
 12        0.0000204613
 13        0.0000425927
 14        0.0000152990
 15       -0.0000044675
 16       -0.0000108315
 17        0.0000309056
 18        0.0000380006
 19       -0.0000660361
 20        0.0000198855
 21       -0.0000152809
 22       -0.0000046047
 23        0.0000313640
 24        0.0000258802
 25       -0.0000636873
 26       -0.0000006199
 27        0.0000002183
 28        0.0000001237
 29        0.0000011985
 30        0.0000003730
 31        0.0000007585
 32        0.0000006613
 33       -0.0000010280
 34       -0.0000011296
 35        0.0000034193
 36       -0.0016850208
 37        0.0005210907
 38       -0.0000281470
 39        0.0004134244
 40       -0.0000927287
 41       -0.0000127135
 42        0.0002655570
 43        0.0000888545
 44       -0.0001234299
 45       -0.0000823400
 46        0.0002022729
 47        0.0005465908
 48        0.0001496360
 49        0.0000126656
 50       -0.0000095586
 51       -0.0000031069
 52        0.0000073827
 53        0.0000085222
 54       -0.0000205857
 55       -0.0000072029
 56        0.0000149813
 57       -0.0000077784
 58        0.0000291288
 59        0.0000216796
 60       -0.0000009228
 61       -0.0000095821
 62        0.0000069286
 63        0.0000052628
 64        0.0000128867
 65        0.0000091992
 66        0.0000164256
 67        0.0000158597
 68       -0.0000299851
 69       -0.0000322139
 70        0.0000639948
 71        0.0016850208
 72       -0.0005210907
 73        0.0000281470
 74       -0.0004134244
 75       -0.0000927287
 76       -0.0000127135
 77       -0.0002655570
 78        0.0000888545
 79       -0.0001234299
 80        0.0000823400
 81        0.0002022729
 82        0.0005465908
 83       -0.0001496360
 84       -0.0000126656
 85        0.0000095586
 86        0.0000031069
 87       -0.0000073827
 88        0.0000085222
 89       -0.0000205857
 90        0.0000072029
 91       -0.0000149813
 92        0.0000077784
 93       -0.0000291288
 94        0.0000216796
 95       -0.0000009228
 96       -0.0000095821
 97        0.0000069286
 98       -0.0000052628
 99        0.0000128867
100        0.0000091992
101       -0.0000164256
102        0.0000158597
103       -0.0000299851