[Molden Format]                                                                 
[ATOMS] AU                                                                      
F        1    9        0.2020310666       -2.7991564408       -0.9000465948     
O        2    8       -0.7276904676       -0.9230682567        1.0690552917     
O        3    8        0.7276904676        0.9230682567        1.0690552917     
F        4    9       -0.2020310666        2.7991564408       -0.9000465948     
[Molden Format]                                                                 
[GTO]                                                                           
  1 0                                                                           
s  10 1.00                                                                      
   19500.0000000000       5.070000000000000E-004                                
   2923.00000000000       3.923000000000000E-003                                
   664.500000000000       2.020000000000000E-002                                
   187.500000000000       7.901000000000000E-002                                
   60.6200000000000       0.230439000000000                                     
   21.4200000000000       0.432872000000000                                     
   7.95000000000000       0.349964000000000                                     
   2.25700000000000       4.323300000000000E-002                                
  0.881500000000000      -7.892000000000000E-003                                
  0.304100000000000       2.384000000000000E-003                                
s  10 1.00                                                                      
   19500.0000000000      -1.170000000000000E-004                                
   2923.00000000000      -9.120000000000001E-004                                
   664.500000000000      -4.717000000000000E-003                                
   187.500000000000      -1.908600000000000E-002                                
   60.6200000000000      -5.965500000000000E-002                                
   21.4200000000000      -0.140010000000000                                     
   7.95000000000000      -0.176782000000000                                     
   2.25700000000000       0.171625000000000                                     
  0.881500000000000       0.605043000000000                                     
  0.304100000000000       0.369512000000000                                     
s  10 1.00                                                                      
   19500.0000000000       0.000000000000000E+000                                
   2923.00000000000       0.000000000000000E+000                                
   664.500000000000       0.000000000000000E+000                                
   187.500000000000       0.000000000000000E+000                                
   60.6200000000000       0.000000000000000E+000                                
   21.4200000000000       0.000000000000000E+000                                
   7.95000000000000       0.000000000000000E+000                                
   2.25700000000000        1.00000000000000                                     
  0.881500000000000       0.000000000000000E+000                                
  0.304100000000000       0.000000000000000E+000                                
s  10 1.00                                                                      
   19500.0000000000       0.000000000000000E+000                                
   2923.00000000000       0.000000000000000E+000                                
   664.500000000000       0.000000000000000E+000                                
   187.500000000000       0.000000000000000E+000                                
   60.6200000000000       0.000000000000000E+000                                
   21.4200000000000       0.000000000000000E+000                                
   7.95000000000000       0.000000000000000E+000                                
   2.25700000000000       0.000000000000000E+000                                
  0.881500000000000       0.000000000000000E+000                                
  0.304100000000000        1.00000000000000                                     
p   5 1.00                                                                      
   43.8800000000000       1.666500000000000E-002                                
   9.92600000000000       0.104472000000000                                     
   2.93000000000000       0.317260000000000                                     
  0.913200000000000       0.487343000000000                                     
  0.267200000000000       0.334604000000000                                     
p   5 1.00                                                                      
   43.8800000000000       0.000000000000000E+000                                
   9.92600000000000       0.000000000000000E+000                                
   2.93000000000000       0.000000000000000E+000                                
  0.913200000000000        1.00000000000000                                     
  0.267200000000000       0.000000000000000E+000                                
p   5 1.00                                                                      
   43.8800000000000       0.000000000000000E+000                                
   9.92600000000000       0.000000000000000E+000                                
   2.93000000000000       0.000000000000000E+000                                
  0.913200000000000       0.000000000000000E+000                                
  0.267200000000000        1.00000000000000                                     
d   2 1.00                                                                      
   3.10700000000000        1.00000000000000                                     
  0.855000000000000       0.000000000000000E+000                                
d   2 1.00                                                                      
   3.10700000000000       0.000000000000000E+000                                
  0.855000000000000        1.00000000000000                                     
f   1 1.00                                                                      
   1.91700000000000        1.00000000000000                                     
                                                                                
  4 0                                                                           
s  10 1.00                                                                      
   19500.0000000000       5.070000000000000E-004                                
   2923.00000000000       3.923000000000000E-003                                
   664.500000000000       2.020000000000000E-002                                
   187.500000000000       7.901000000000000E-002                                
   60.6200000000000       0.230439000000000                                     
   21.4200000000000       0.432872000000000                                     
   7.95000000000000       0.349964000000000                                     
   2.25700000000000       4.323300000000000E-002                                
  0.881500000000000      -7.892000000000000E-003                                
  0.304100000000000       2.384000000000000E-003                                
s  10 1.00                                                                      
   19500.0000000000      -1.170000000000000E-004                                
   2923.00000000000      -9.120000000000001E-004                                
   664.500000000000      -4.717000000000000E-003                                
   187.500000000000      -1.908600000000000E-002                                
   60.6200000000000      -5.965500000000000E-002                                
   21.4200000000000      -0.140010000000000                                     
   7.95000000000000      -0.176782000000000                                     
   2.25700000000000       0.171625000000000                                     
  0.881500000000000       0.605043000000000                                     
  0.304100000000000       0.369512000000000                                     
s  10 1.00                                                                      
   19500.0000000000       0.000000000000000E+000                                
   2923.00000000000       0.000000000000000E+000                                
   664.500000000000       0.000000000000000E+000                                
   187.500000000000       0.000000000000000E+000                                
   60.6200000000000       0.000000000000000E+000                                
   21.4200000000000       0.000000000000000E+000                                
   7.95000000000000       0.000000000000000E+000                                
   2.25700000000000        1.00000000000000                                     
  0.881500000000000       0.000000000000000E+000                                
  0.304100000000000       0.000000000000000E+000                                
s  10 1.00                                                                      
   19500.0000000000       0.000000000000000E+000                                
   2923.00000000000       0.000000000000000E+000                                
   664.500000000000       0.000000000000000E+000                                
   187.500000000000       0.000000000000000E+000                                
   60.6200000000000       0.000000000000000E+000                                
   21.4200000000000       0.000000000000000E+000                                
   7.95000000000000       0.000000000000000E+000                                
   2.25700000000000       0.000000000000000E+000                                
  0.881500000000000       0.000000000000000E+000                                
  0.304100000000000        1.00000000000000                                     
p   5 1.00                                                                      
   43.8800000000000       1.666500000000000E-002                                
   9.92600000000000       0.104472000000000                                     
   2.93000000000000       0.317260000000000                                     
  0.913200000000000       0.487343000000000                                     
  0.267200000000000       0.334604000000000                                     
p   5 1.00                                                                      
   43.8800000000000       0.000000000000000E+000                                
   9.92600000000000       0.000000000000000E+000                                
   2.93000000000000       0.000000000000000E+000                                
  0.913200000000000        1.00000000000000                                     
  0.267200000000000       0.000000000000000E+000                                
p   5 1.00                                                                      
   43.8800000000000       0.000000000000000E+000                                
   9.92600000000000       0.000000000000000E+000                                
   2.93000000000000       0.000000000000000E+000                                
  0.913200000000000       0.000000000000000E+000                                
  0.267200000000000        1.00000000000000                                     
d   2 1.00                                                                      
   3.10700000000000        1.00000000000000                                     
  0.855000000000000       0.000000000000000E+000                                
d   2 1.00                                                                      
   3.10700000000000       0.000000000000000E+000                                
  0.855000000000000        1.00000000000000                                     
f   1 1.00                                                                      
   1.91700000000000        1.00000000000000                                     
                                                                                
  2 0                                                                           
s  10 1.00                                                                      
   15330.0000000000       5.080000000000000E-004                                
   2299.00000000000       3.929000000000000E-003                                
   522.400000000000       2.024300000000000E-002                                
   147.300000000000       7.918100000000000E-002                                
   47.5500000000000       0.230687000000000                                     
   16.7600000000000       0.433118000000000                                     
   6.20700000000000       0.350260000000000                                     
   1.75200000000000       4.272800000000000E-002                                
  0.688200000000000      -8.154000000000000E-003                                
  0.238400000000000       2.381000000000000E-003                                
s  10 1.00                                                                      
   15330.0000000000      -1.150000000000000E-004                                
   2299.00000000000      -8.950000000000000E-004                                
   522.400000000000      -4.636000000000000E-003                                
   147.300000000000      -1.872400000000000E-002                                
   47.5500000000000      -5.846300000000000E-002                                
   16.7600000000000      -0.136463000000000                                     
   6.20700000000000      -0.175740000000000                                     
   1.75200000000000       0.160934000000000                                     
  0.688200000000000       0.603418000000000                                     
  0.238400000000000       0.378765000000000                                     
s  10 1.00                                                                      
   15330.0000000000       0.000000000000000E+000                                
   2299.00000000000       0.000000000000000E+000                                
   522.400000000000       0.000000000000000E+000                                
   147.300000000000       0.000000000000000E+000                                
   47.5500000000000       0.000000000000000E+000                                
   16.7600000000000       0.000000000000000E+000                                
   6.20700000000000       0.000000000000000E+000                                
   1.75200000000000        1.00000000000000                                     
  0.688200000000000       0.000000000000000E+000                                
  0.238400000000000       0.000000000000000E+000                                
s  10 1.00                                                                      
   15330.0000000000       0.000000000000000E+000                                
   2299.00000000000       0.000000000000000E+000                                
   522.400000000000       0.000000000000000E+000                                
   147.300000000000       0.000000000000000E+000                                
   47.5500000000000       0.000000000000000E+000                                
   16.7600000000000       0.000000000000000E+000                                
   6.20700000000000       0.000000000000000E+000                                
   1.75200000000000       0.000000000000000E+000                                
  0.688200000000000       0.000000000000000E+000                                
  0.238400000000000        1.00000000000000                                     
p   5 1.00                                                                      
   34.4600000000000       1.592800000000000E-002                                
   7.74900000000000       9.974000000000000E-002                                
   2.28000000000000       0.310492000000000                                     
  0.715600000000000       0.491026000000000                                     
  0.214000000000000       0.336337000000000                                     
p   5 1.00                                                                      
   34.4600000000000       0.000000000000000E+000                                
   7.74900000000000       0.000000000000000E+000                                
   2.28000000000000       0.000000000000000E+000                                
  0.715600000000000        1.00000000000000                                     
  0.214000000000000       0.000000000000000E+000                                
p   5 1.00                                                                      
   34.4600000000000       0.000000000000000E+000                                
   7.74900000000000       0.000000000000000E+000                                
   2.28000000000000       0.000000000000000E+000                                
  0.715600000000000       0.000000000000000E+000                                
  0.214000000000000        1.00000000000000                                     
d   2 1.00                                                                      
   2.31400000000000        1.00000000000000                                     
  0.645000000000000       0.000000000000000E+000                                
d   2 1.00                                                                      
   2.31400000000000       0.000000000000000E+000                                
  0.645000000000000        1.00000000000000                                     
f   1 1.00                                                                      
   1.42800000000000        1.00000000000000                                     
                                                                                
  3 0                                                                           
s  10 1.00                                                                      
   15330.0000000000       5.080000000000000E-004                                
   2299.00000000000       3.929000000000000E-003                                
   522.400000000000       2.024300000000000E-002                                
   147.300000000000       7.918100000000000E-002                                
   47.5500000000000       0.230687000000000                                     
   16.7600000000000       0.433118000000000                                     
   6.20700000000000       0.350260000000000                                     
   1.75200000000000       4.272800000000000E-002                                
  0.688200000000000      -8.154000000000000E-003                                
  0.238400000000000       2.381000000000000E-003                                
s  10 1.00                                                                      
   15330.0000000000      -1.150000000000000E-004                                
   2299.00000000000      -8.950000000000000E-004                                
   522.400000000000      -4.636000000000000E-003                                
   147.300000000000      -1.872400000000000E-002                                
   47.5500000000000      -5.846300000000000E-002                                
   16.7600000000000      -0.136463000000000                                     
   6.20700000000000      -0.175740000000000                                     
   1.75200000000000       0.160934000000000                                     
  0.688200000000000       0.603418000000000                                     
  0.238400000000000       0.378765000000000                                     
s  10 1.00                                                                      
   15330.0000000000       0.000000000000000E+000                                
   2299.00000000000       0.000000000000000E+000                                
   522.400000000000       0.000000000000000E+000                                
   147.300000000000       0.000000000000000E+000                                
   47.5500000000000       0.000000000000000E+000                                
   16.7600000000000       0.000000000000000E+000                                
   6.20700000000000       0.000000000000000E+000                                
   1.75200000000000        1.00000000000000                                     
  0.688200000000000       0.000000000000000E+000                                
  0.238400000000000       0.000000000000000E+000                                
s  10 1.00                                                                      
   15330.0000000000       0.000000000000000E+000                                
   2299.00000000000       0.000000000000000E+000                                
   522.400000000000       0.000000000000000E+000                                
   147.300000000000       0.000000000000000E+000                                
   47.5500000000000       0.000000000000000E+000                                
   16.7600000000000       0.000000000000000E+000                                
   6.20700000000000       0.000000000000000E+000                                
   1.75200000000000       0.000000000000000E+000                                
  0.688200000000000       0.000000000000000E+000                                
  0.238400000000000        1.00000000000000                                     
p   5 1.00                                                                      
   34.4600000000000       1.592800000000000E-002                                
   7.74900000000000       9.974000000000000E-002                                
   2.28000000000000       0.310492000000000                                     
  0.715600000000000       0.491026000000000                                     
  0.214000000000000       0.336337000000000                                     
p   5 1.00                                                                      
   34.4600000000000       0.000000000000000E+000                                
   7.74900000000000       0.000000000000000E+000                                
   2.28000000000000       0.000000000000000E+000                                
  0.715600000000000        1.00000000000000                                     
  0.214000000000000       0.000000000000000E+000                                
p   5 1.00                                                                      
   34.4600000000000       0.000000000000000E+000                                
   7.74900000000000       0.000000000000000E+000                                
   2.28000000000000       0.000000000000000E+000                                
  0.715600000000000       0.000000000000000E+000                                
  0.214000000000000        1.00000000000000                                     
d   2 1.00                                                                      
   2.31400000000000        1.00000000000000                                     
  0.645000000000000       0.000000000000000E+000                                
d   2 1.00                                                                      
   2.31400000000000       0.000000000000000E+000                                
  0.645000000000000        1.00000000000000                                     
f   1 1.00                                                                      
   1.42800000000000        1.00000000000000                                     
                                                                                
[MO]
 Sym= A
 Ene=   1.99965759666355     
 Spin= Alpha
 Occup=   1.99965759666355     
  1        0.7061854306
  2       -0.0027467135
  3        0.0013282756
  4        0.0011242976
  5       -0.0006052493
  6        0.0013812302
  7        0.0015021115
  8        0.0003049904
  9       -0.0006489541
 10       -0.0006860914
 11       -0.0000140755
 12        0.0001216336
 13        0.0000858325
 14        0.0000168365
 15       -0.0000093757
 16       -0.0000074609
 17        0.0000277312
 18        0.0000340840
 19       -0.0000640061
 20       -0.0000013179
 21        0.0000126673
 22       -0.0000113494
 23        0.0000147938
 24        0.0000138416
 25       -0.0000116619
 26       -0.0000001285
 27        0.0000007299
 28       -0.0000003626
 29        0.0000010001
 30       -0.0000009108
 31        0.0000002491
 32       -0.0000006145
 33       -0.0000012790
 34        0.0000008388
 35        0.0000003943
 36        0.0045424174
 37        0.0020687173
 38       -0.0002992826
 39       -0.0012551534
 40        0.0000477544
 41       -0.0002851806
 42       -0.0005755412
 43        0.0000590444
 44       -0.0000487441
 45       -0.0001839656
 46       -0.0002427922
 47        0.0002042618
 48        0.0003891295
 49        0.0000029190
 50        0.0000040872
 51       -0.0000070062
 52        0.0000266222
 53        0.0000041687
 54       -0.0000350071
 55       -0.0000265950
 56        0.0000047334
 57        0.0000218617
 58       -0.0000800623
 59       -0.0000820195
 60        0.0000829001
 61       -0.0000110985
 62        0.0000099015
 63        0.0000065320
 64        0.0000048330
 65        0.0000034946
 66        0.0000057708
 67        0.0000284627
 68       -0.0000331990
 69       -0.0000253666
 70        0.0000523947
 71        0.0045424174
 72        0.0020687173
 73       -0.0002992826
 74       -0.0012551534
 75       -0.0000477544
 76        0.0002851806
 77       -0.0005755412
 78       -0.0000590444
 79        0.0000487441
 80       -0.0001839656
 81        0.0002427922
 82       -0.0002042618
 83        0.0003891295
 84        0.0000029190
 85        0.0000040872
 86       -0.0000070062
 87        0.0000266222
 88       -0.0000041687
 89        0.0000350071
 90       -0.0000265950
 91        0.0000047334
 92        0.0000218617
 93       -0.0000800623
 94        0.0000820195
 95       -0.0000829001
 96        0.0000110985
 97       -0.0000099015
 98        0.0000065320
 99       -0.0000048330
100       -0.0000034946
101        0.0000057708
102       -0.0000284627
103        0.0000331990
104       -0.0000253666
105        0.0000523947
106        0.7061854306
107       -0.0027467135
108        0.0013282756
109        0.0011242976
110        0.0006052493
111       -0.0013812302
112        0.0015021115
113       -0.0003049904
114        0.0006489541
115       -0.0006860914
116        0.0000140755
117       -0.0001216336
118        0.0000858325
119        0.0000168365
120       -0.0000093757
121       -0.0000074609
122        0.0000277312
123       -0.0000340840
124        0.0000640061
125       -0.0000013179
126        0.0000126673
127       -0.0000113494
128        0.0000147938
129       -0.0000138416
130        0.0000116619
131        0.0000001285
132       -0.0000007299
133       -0.0000003626
134       -0.0000010001
135        0.0000009108
136        0.0000002491
137        0.0000006145
138        0.0000012790
139        0.0000008388
140        0.0000003943
 Sym= A
 Ene=   1.99965759558150     
 Spin= Alpha
 Occup=   1.99965759558150     
  1        0.7062279491
  2       -0.0026191496
  3        0.0012963805
  4        0.0009066479
  5       -0.0006617629
  6        0.0014442044
  7        0.0014075920
  8        0.0003182416
  9       -0.0006609510
 10       -0.0006744648
 11       -0.0000315333
 12        0.0000108439
 13        0.0000300192
 14        0.0000131363
 15       -0.0000033185
 16       -0.0000098178
 17        0.0000272740
 18        0.0000353281
 19       -0.0000585453
 20        0.0000105334
 21       -0.0000091916
 22       -0.0000013419
 23        0.0000197178
 24        0.0000118604
 25       -0.0000284840
 26        0.0000001726
 27       -0.0000002126
 28       -0.0000005697
 29        0.0000002516
 30       -0.0000010569
 31       -0.0000003129
 32       -0.0000007693
 33        0.0000016947
 34        0.0000020221
 35       -0.0000008752
 36        0.0040280590
 37        0.0010780564
 38       -0.0000267587
 39        0.0002412467
 40        0.0002897081
 41       -0.0004727508
 42       -0.0002555663
 43        0.0000692820
 44       -0.0001669129
 45       -0.0000962429
 46        0.0001343273
 47        0.0006346459
 48        0.0002299534
 49        0.0000114249
 50       -0.0000118898
 51        0.0000004649
 52       -0.0000018515
 53       -0.0000009382
 54       -0.0000010490
 55       -0.0000123476
 56        0.0000034298
 57        0.0000089178
 58       -0.0000143157
 59       -0.0000128463
 60        0.0000576294
 61       -0.0000111317
 62        0.0000076670
 63        0.0000065451
 64        0.0000125532
 65        0.0000130092
 66        0.0000184235
 67        0.0000208419
 68       -0.0000360100
 69       -0.0000380589
 70        0.0000772698
 71       -0.0040280590
 72       -0.0010780564
 73        0.0000267587
 74       -0.0002412467
 75        0.0002897081
 76       -0.0004727508
 77        0.0002555663
 78        0.0000692820
 79       -0.0001669129
 80        0.0000962429
 81        0.0001343273
 82        0.0006346459
 83       -0.0002299534
 84       -0.0000114249
 85        0.0000118898
 86       -0.0000004649
 87        0.0000018515
 88       -0.0000009382
 89       -0.0000010490
 90        0.0000123476
 91       -0.0000034298
 92       -0.0000089178
 93        0.0000143157
 94       -0.0000128463
 95        0.0000576294
 96       -0.0000111317
 97        0.0000076670
 98       -0.0000065451
 99        0.0000125532
100        0.0000130092
101       -0.0000184235
102        0.0000208419
103       -0.0000360100